 Entering Gaussian System, Link 0=g09
 Initial command:
 /cm/shared/apps/gaussian/g09revD.01/g09/l1.exe "//home/sweav003/CHB/validation/G09-methylchlorosilanes4_Suginome.com.o9822883.tmp/Gau-119245.inp" -scrdir="//home/sweav003/CHB/validation/G09-methylchlorosilanes4_Suginome.com.o9822883.tmp/"
 Entering Link 1 = /cm/shared/apps/gaussian/g09revD.01/g09/l1.exe PID=    119246.
  
 Copyright (c) 1988,1990,1992,1993,1995,1998,2003,2009,2013,
            Gaussian, Inc.  All Rights Reserved.
  
 This is part of the Gaussian(R) 09 program.  It is based on
 the Gaussian(R) 03 system (copyright 2003, Gaussian, Inc.),
 the Gaussian(R) 98 system (copyright 1998, Gaussian, Inc.),
 the Gaussian(R) 94 system (copyright 1995, Gaussian, Inc.),
 the Gaussian 92(TM) system (copyright 1992, Gaussian, Inc.),
 the Gaussian 90(TM) system (copyright 1990, Gaussian, Inc.),
 the Gaussian 88(TM) system (copyright 1988, Gaussian, Inc.),
 the Gaussian 86(TM) system (copyright 1986, Carnegie Mellon
 University), and the Gaussian 82(TM) system (copyright 1983,
 Carnegie Mellon University). Gaussian is a federally registered
 trademark of Gaussian, Inc.
  
 This software contains proprietary and confidential information,
 including trade secrets, belonging to Gaussian, Inc.
  
 This software is provided under written license and may be
 used, copied, transmitted, or stored only in accord with that
 written license.
  
 The following legend is applicable only to US Government
 contracts under FAR:
  
                    RESTRICTED RIGHTS LEGEND
  
 Use, reproduction and disclosure by the US Government is
 subject to restrictions as set forth in subparagraphs (a)
 and (c) of the Commercial Computer Software - Restricted
 Rights clause in FAR 52.227-19.
  
 Gaussian, Inc.
 340 Quinnipiac St., Bldg. 40, Wallingford CT 06492
  
  
 ---------------------------------------------------------------
 Warning -- This program may not be used in any manner that
 competes with the business of Gaussian, Inc. or will provide
 assistance to any competitor of Gaussian, Inc.  The licensee
 of this program is prohibited from giving any competitor of
 Gaussian, Inc. access to this program.  By using this program,
 the user acknowledges that Gaussian, Inc. is engaged in the
 business of creating and licensing software in the field of
 computational chemistry and represents and warrants to the
 licensee that it is not a competitor of Gaussian, Inc. and that
 it will not use this program in any manner prohibited above.
 ---------------------------------------------------------------
  

 Cite this work as:
 Gaussian 09, Revision D.01,
 M. J. Frisch, G. W. Trucks, H. B. Schlegel, G. E. Scuseria, 
 M. A. Robb, J. R. Cheeseman, G. Scalmani, V. Barone, B. Mennucci, 
 G. A. Petersson, H. Nakatsuji, M. Caricato, X. Li, H. P. Hratchian, 
 A. F. Izmaylov, J. Bloino, G. Zheng, J. L. Sonnenberg, M. Hada, 
 M. Ehara, K. Toyota, R. Fukuda, J. Hasegawa, M. Ishida, T. Nakajima, 
 Y. Honda, O. Kitao, H. Nakai, T. Vreven, J. A. Montgomery, Jr., 
 J. E. Peralta, F. Ogliaro, M. Bearpark, J. J. Heyd, E. Brothers, 
 K. N. Kudin, V. N. Staroverov, T. Keith, R. Kobayashi, J. Normand, 
 K. Raghavachari, A. Rendell, J. C. Burant, S. S. Iyengar, J. Tomasi, 
 M. Cossi, N. Rega, J. M. Millam, M. Klene, J. E. Knox, J. B. Cross, 
 V. Bakken, C. Adamo, J. Jaramillo, R. Gomperts, R. E. Stratmann, 
 O. Yazyev, A. J. Austin, R. Cammi, C. Pomelli, J. W. Ochterski, 
 R. L. Martin, K. Morokuma, V. G. Zakrzewski, G. A. Voth, 
 P. Salvador, J. J. Dannenberg, S. Dapprich, A. D. Daniels, 
 O. Farkas, J. B. Foresman, J. V. Ortiz, J. Cioslowski, 
 and D. J. Fox, Gaussian, Inc., Wallingford CT, 2013.
 
 ******************************************
 Gaussian 09:  ES64L-G09RevD.01 24-Apr-2013
                 9-Jan-2023 
 ******************************************
 %nprocshared=20
 Will use up to   20 processors via shared memory.
 %mem=4GB
 %chk=methylchlorosilanes4_Suginome.chk
 ----------------------------------------------------------------------
 # opt freq b3lyp/6-311+g(d,p) geom=connectivity pop=(hirshfeld,chelpg,
 mbs,npa)
 ----------------------------------------------------------------------
 1/14=-1,18=20,19=15,26=3,38=1,57=2/1,3;
 2/9=110,12=2,17=6,18=5,40=1/2;
 3/5=4,6=6,7=111,11=2,16=1,25=1,30=1,71=1,74=-5/1,2,3;
 4//1;
 5/5=2,38=5/2;
 6/7=2,8=2,9=2,10=2,15=8,20=3,27=100,28=1,40=-1,79=1/1,2,7;
 7//1,2,3,16;
 1/14=-1,18=20,19=15,26=3/3(2);
 2/9=110/2;
 99//99;
 2/9=110/2;
 3/5=4,6=6,7=111,11=2,16=1,25=1,30=1,71=1,74=-5/1,2,3;
 4/5=5,16=3,69=1/1;
 5/5=2,38=5/2;
 7//1,2,3,16;
 1/14=-1,18=20,19=15,26=3/3(-5);
 2/9=110/2;
 6/7=2,8=2,9=2,10=2,15=8,19=2,20=3,27=100,28=1,40=-1,79=1/1,2,7;
 99/9=1/99;
 -------------------
 Title Card Required
 -------------------
 Symbolic Z-matrix:
 Charge =  0 Multiplicity = 1
 Si                    2.13546   0.13651  -1.38773 
 Cl                    2.85549   1.15497  -3.15122 
 C                     2.78212   1.05082   0.1964 
 H                     2.42547   2.05963   0.19653 
 H                     2.42544   0.5463    1.06998 
 H                     3.85212   1.0508    0.19641 
 C                     0.19546   0.13653  -1.38775 
 H                    -0.1612   -0.36775  -2.26147 
 H                    -0.16119   1.14534  -1.38762 
 C                     2.78211  -1.69255  -1.38797 
 H                     3.85211  -1.69256  -1.38796 
 H                     2.42543  -2.19706  -0.51439 
 H                     2.42544  -2.19683  -2.26169 
 C                    -0.31789  -0.58959  -0.13045 
 H                     0.03877  -0.08531   0.74328 
 H                     0.03877  -1.5984   -0.13058 
 C                    -1.85789  -0.58958  -0.13046 
 H                    -2.21455  -1.09386  -1.00418 
 H                    -2.21455   0.41923  -0.13033 
 C                    -2.37124  -1.3157    1.12684 
 H                    -2.01458  -0.81142   2.00056 
 H                    -3.44124  -1.31569   1.12683 
 H                    -2.01459  -2.32451   1.12671 
 

 GradGradGradGradGradGradGradGradGradGradGradGradGradGradGradGradGradGrad
 Berny optimization.
 Initialization pass.
                           ----------------------------
                           !    Initial Parameters    !
                           ! (Angstroms and Degrees)  !
 --------------------------                            --------------------------
 ! Name  Definition              Value          Derivative Info.                !
 --------------------------------------------------------------------------------
 ! R1    R(1,2)                  2.16           estimate D2E/DX2                !
 ! R2    R(1,3)                  1.94           estimate D2E/DX2                !
 ! R3    R(1,7)                  1.94           estimate D2E/DX2                !
 ! R4    R(1,10)                 1.94           estimate D2E/DX2                !
 ! R5    R(3,4)                  1.07           estimate D2E/DX2                !
 ! R6    R(3,5)                  1.07           estimate D2E/DX2                !
 ! R7    R(3,6)                  1.07           estimate D2E/DX2                !
 ! R8    R(7,8)                  1.07           estimate D2E/DX2                !
 ! R9    R(7,9)                  1.07           estimate D2E/DX2                !
 ! R10   R(7,14)                 1.54           estimate D2E/DX2                !
 ! R11   R(10,11)                1.07           estimate D2E/DX2                !
 ! R12   R(10,12)                1.07           estimate D2E/DX2                !
 ! R13   R(10,13)                1.07           estimate D2E/DX2                !
 ! R14   R(14,15)                1.07           estimate D2E/DX2                !
 ! R15   R(14,16)                1.07           estimate D2E/DX2                !
 ! R16   R(14,17)                1.54           estimate D2E/DX2                !
 ! R17   R(17,18)                1.07           estimate D2E/DX2                !
 ! R18   R(17,19)                1.07           estimate D2E/DX2                !
 ! R19   R(17,20)                1.54           estimate D2E/DX2                !
 ! R20   R(20,21)                1.07           estimate D2E/DX2                !
 ! R21   R(20,22)                1.07           estimate D2E/DX2                !
 ! R22   R(20,23)                1.07           estimate D2E/DX2                !
 ! A1    A(2,1,3)              109.4712         estimate D2E/DX2                !
 ! A2    A(2,1,7)              109.4712         estimate D2E/DX2                !
 ! A3    A(2,1,10)             109.4712         estimate D2E/DX2                !
 ! A4    A(3,1,7)              109.4712         estimate D2E/DX2                !
 ! A5    A(3,1,10)             109.4712         estimate D2E/DX2                !
 ! A6    A(7,1,10)             109.4712         estimate D2E/DX2                !
 ! A7    A(1,3,4)              109.4712         estimate D2E/DX2                !
 ! A8    A(1,3,5)              109.4712         estimate D2E/DX2                !
 ! A9    A(1,3,6)              109.4712         estimate D2E/DX2                !
 ! A10   A(4,3,5)              109.4712         estimate D2E/DX2                !
 ! A11   A(4,3,6)              109.4712         estimate D2E/DX2                !
 ! A12   A(5,3,6)              109.4712         estimate D2E/DX2                !
 ! A13   A(1,7,8)              109.4712         estimate D2E/DX2                !
 ! A14   A(1,7,9)              109.4712         estimate D2E/DX2                !
 ! A15   A(1,7,14)             109.4712         estimate D2E/DX2                !
 ! A16   A(8,7,9)              109.4712         estimate D2E/DX2                !
 ! A17   A(8,7,14)             109.4712         estimate D2E/DX2                !
 ! A18   A(9,7,14)             109.4712         estimate D2E/DX2                !
 ! A19   A(1,10,11)            109.4712         estimate D2E/DX2                !
 ! A20   A(1,10,12)            109.4712         estimate D2E/DX2                !
 ! A21   A(1,10,13)            109.4712         estimate D2E/DX2                !
 ! A22   A(11,10,12)           109.4712         estimate D2E/DX2                !
 ! A23   A(11,10,13)           109.4712         estimate D2E/DX2                !
 ! A24   A(12,10,13)           109.4712         estimate D2E/DX2                !
 ! A25   A(7,14,15)            109.4712         estimate D2E/DX2                !
 ! A26   A(7,14,16)            109.4712         estimate D2E/DX2                !
 ! A27   A(7,14,17)            109.4712         estimate D2E/DX2                !
 ! A28   A(15,14,16)           109.4712         estimate D2E/DX2                !
 ! A29   A(15,14,17)           109.4713         estimate D2E/DX2                !
 ! A30   A(16,14,17)           109.4712         estimate D2E/DX2                !
 ! A31   A(14,17,18)           109.4712         estimate D2E/DX2                !
 ! A32   A(14,17,19)           109.4712         estimate D2E/DX2                !
 ! A33   A(14,17,20)           109.4712         estimate D2E/DX2                !
 ! A34   A(18,17,19)           109.4712         estimate D2E/DX2                !
 ! A35   A(18,17,20)           109.4713         estimate D2E/DX2                !
 ! A36   A(19,17,20)           109.4712         estimate D2E/DX2                !
 ! A37   A(17,20,21)           109.4712         estimate D2E/DX2                !
 ! A38   A(17,20,22)           109.4712         estimate D2E/DX2                !
 ! A39   A(17,20,23)           109.4712         estimate D2E/DX2                !
 ! A40   A(21,20,22)           109.4713         estimate D2E/DX2                !
 ! A41   A(21,20,23)           109.4712         estimate D2E/DX2                !
 ! A42   A(22,20,23)           109.4712         estimate D2E/DX2                !
 ! D1    D(2,1,3,4)             60.0            estimate D2E/DX2                !
 ! D2    D(2,1,3,5)            180.0            estimate D2E/DX2                !
 ! D3    D(2,1,3,6)            -60.0            estimate D2E/DX2                !
 ! D4    D(7,1,3,4)            -60.0            estimate D2E/DX2                !
 ! D5    D(7,1,3,5)             60.0            estimate D2E/DX2                !
 ! D6    D(7,1,3,6)            180.0            estimate D2E/DX2                !
 ! D7    D(10,1,3,4)           180.0            estimate D2E/DX2                !
 ! D8    D(10,1,3,5)           -60.0            estimate D2E/DX2                !
 ! D9    D(10,1,3,6)            60.0            estimate D2E/DX2                !
 ! D10   D(2,1,7,8)             60.0            estimate D2E/DX2                !
 ! D11   D(2,1,7,9)            -60.0            estimate D2E/DX2                !
 ! D12   D(2,1,7,14)          -180.0            estimate D2E/DX2                !
 ! D13   D(3,1,7,8)            180.0            estimate D2E/DX2                !
 ! D14   D(3,1,7,9)             60.0            estimate D2E/DX2                !
 ! D15   D(3,1,7,14)           -60.0            estimate D2E/DX2                !
 ! D16   D(10,1,7,8)           -60.0            estimate D2E/DX2                !
 ! D17   D(10,1,7,9)           180.0            estimate D2E/DX2                !
 ! D18   D(10,1,7,14)           60.0            estimate D2E/DX2                !
 ! D19   D(2,1,10,11)           60.0            estimate D2E/DX2                !
 ! D20   D(2,1,10,12)          180.0            estimate D2E/DX2                !
 ! D21   D(2,1,10,13)          -60.0            estimate D2E/DX2                !
 ! D22   D(3,1,10,11)          -60.0            estimate D2E/DX2                !
 ! D23   D(3,1,10,12)           60.0            estimate D2E/DX2                !
 ! D24   D(3,1,10,13)          180.0            estimate D2E/DX2                !
 ! D25   D(7,1,10,11)         -180.0            estimate D2E/DX2                !
 ! D26   D(7,1,10,12)          -60.0            estimate D2E/DX2                !
 ! D27   D(7,1,10,13)           60.0            estimate D2E/DX2                !
 ! D28   D(1,7,14,15)           60.0001         estimate D2E/DX2                !
 ! D29   D(1,7,14,16)          -59.9999         estimate D2E/DX2                !
 ! D30   D(1,7,14,17)         -179.9999         estimate D2E/DX2                !
 ! D31   D(8,7,14,15)         -179.9999         estimate D2E/DX2                !
 ! D32   D(8,7,14,16)           60.0001         estimate D2E/DX2                !
 ! D33   D(8,7,14,17)          -59.9999         estimate D2E/DX2                !
 ! D34   D(9,7,14,15)          -59.9999         estimate D2E/DX2                !
 ! D35   D(9,7,14,16)         -179.9999         estimate D2E/DX2                !
 ! D36   D(9,7,14,17)           60.0001         estimate D2E/DX2                !
 ! D37   D(7,14,17,18)          60.0            estimate D2E/DX2                !
 ! D38   D(7,14,17,19)         -59.9999         estimate D2E/DX2                !
 ! D39   D(7,14,17,20)        -179.9999         estimate D2E/DX2                !
 ! D40   D(15,14,17,18)       -180.0            estimate D2E/DX2                !
 ! D41   D(15,14,17,19)         60.0            estimate D2E/DX2                !
 ! D42   D(15,14,17,20)        -60.0            estimate D2E/DX2                !
 ! D43   D(16,14,17,18)        -60.0            estimate D2E/DX2                !
 ! D44   D(16,14,17,19)       -179.9999         estimate D2E/DX2                !
 ! D45   D(16,14,17,20)         60.0001         estimate D2E/DX2                !
 ! D46   D(14,17,20,21)         60.0001         estimate D2E/DX2                !
 ! D47   D(14,17,20,22)       -179.9999         estimate D2E/DX2                !
 ! D48   D(14,17,20,23)        -59.9999         estimate D2E/DX2                !
 ! D49   D(18,17,20,21)       -179.9999         estimate D2E/DX2                !
 ! D50   D(18,17,20,22)        -59.9999         estimate D2E/DX2                !
 ! D51   D(18,17,20,23)         60.0001         estimate D2E/DX2                !
 ! D52   D(19,17,20,21)        -59.9999         estimate D2E/DX2                !
 ! D53   D(19,17,20,22)         60.0001         estimate D2E/DX2                !
 ! D54   D(19,17,20,23)       -179.9999         estimate D2E/DX2                !
 --------------------------------------------------------------------------------
 Trust Radius=3.00D-01 FncErr=1.00D-07 GrdErr=1.00D-06
 Number of steps in this run=    128 maximum allowed number of steps=    138.
 GradGradGradGradGradGradGradGradGradGradGradGradGradGradGradGradGradGrad

                          Input orientation:                          
 ---------------------------------------------------------------------
 Center     Atomic      Atomic             Coordinates (Angstroms)
 Number     Number       Type             X           Y           Z
 ---------------------------------------------------------------------
      1         14           0        2.135462    0.136511   -1.387730
      2         17           0        2.855491    1.154972   -3.151220
      3          6           0        2.782124    1.050817    0.196401
      4          1           0        2.425468    2.059626    0.196533
      5          1           0        2.425443    0.546301    1.069982
      6          1           0        3.852124    1.050805    0.196412
      7          6           0        0.195462    0.136532   -1.387749
      8          1           0       -0.161202   -0.367750   -2.261471
      9          1           0       -0.161193    1.145342   -1.387618
     10          6           0        2.782108   -1.692546   -1.387968
     11          1           0        3.852108   -1.692558   -1.387958
     12          1           0        2.425428   -2.197061   -0.514388
     13          1           0        2.425445   -2.196828   -2.261691
     14          6           0       -0.317891   -0.589593   -0.130446
     15          1           0        0.038772   -0.085310    0.743276
     16          1           0        0.038765   -1.598402   -0.130577
     17          6           0       -1.857891   -0.589577   -0.130463
     18          1           0       -2.214554   -1.093861   -1.004184
     19          1           0       -2.214548    0.419232   -0.130333
     20          6           0       -2.371245   -1.315701    1.126841
     21          1           0       -2.014584   -0.811416    2.000562
     22          1           0       -3.441245   -1.315692    1.126828
     23          1           0       -2.014587   -2.324510    1.126713
 ---------------------------------------------------------------------
                    Distance matrix (angstroms):
                    1          2          3          4          5
     1  Si   0.000000
     2  Cl   2.160000   0.000000
     3  C    1.940000   3.350045   0.000000
     4  H    2.508459   3.494391   1.070000   0.000000
     5  H    2.508459   4.286487   1.070000   1.747303   0.000000
     6  H    2.508459   3.494391   1.070000   1.747303   1.747303
     7  C    1.940000   3.350045   3.168007   3.343825   3.343825
     8  H    2.508459   3.494391   4.088598   4.315646   4.315646
     9  H    2.508459   3.494391   3.343825   3.168007   3.617918
    10  C    1.940000   3.350045   3.168007   4.088598   3.343825
    11  H    2.508459   3.494391   3.343825   4.315646   3.617918
    12  H    2.508459   4.286487   3.343825   4.315646   3.168007
    13  H    2.508459   3.494391   4.088598   4.915309   4.315646
    14  C    2.850778   4.715817   3.522480   3.827702   3.202681
    15  H    2.997750   4.963799   3.019244   3.255150   2.490355
    16  H    2.997749   4.963799   3.827701   4.380014   3.425978
    17  C    4.249094   5.863821   4.932289   5.047017   4.591104
    18  H    4.536911   5.947467   5.568468   5.737247   5.340587
    19  H    4.536912   5.947467   5.047017   4.932290   4.794415
    20  C    5.361194   7.191995   5.746593   5.938583   5.145726
    21  H    5.440770   7.356981   5.452642   5.586723   4.735316
    22  H    6.287413   8.003422   6.722825   6.832024   6.155346
    23  H    5.440767   7.356980   5.938580   6.308722   5.287593
                    6          7          8          9         10
     6  H    0.000000
     7  C    4.088598   0.000000
     8  H    4.915309   1.070000   0.000000
     9  H    4.315646   1.070000   1.747303   0.000000
    10  C    3.343825   3.168007   3.343825   4.088598   0.000000
    11  H    3.168007   4.088598   4.315646   4.915309   1.070000
    12  H    3.617918   3.343825   3.617918   4.315646   1.070000
    13  H    4.315646   3.343825   3.168007   4.315646   1.070000
    14  C    4.492969   1.540000   2.148263   2.148263   3.522480
    15  H    4.016400   2.148263   3.024610   2.468845   3.827703
    16  H    4.654774   2.148263   2.468847   3.024610   3.019243
    17  C    5.949956   2.514809   2.732977   2.732978   4.932287
    18  H    6.545655   2.732977   2.514808   3.062244   5.047013
    19  H    6.108204   2.732977   3.062241   2.514809   5.568467
    20  C    6.722824   3.875581   4.154944   4.154945   5.746593
    21  H    6.414131   4.154944   4.668704   4.329402   5.938585
    22  H    7.723937   4.653783   4.810182   4.810184   6.722823
    23  H    6.832020   4.154944   4.329404   4.668704   5.452640
                   11         12         13         14         15
    11  H    0.000000
    12  H    1.747303   0.000000
    13  H    1.747303   1.747303   0.000000
    14  C    4.492969   3.202681   3.827702   0.000000
    15  H    4.654776   3.425980   4.380016   1.070000   0.000000
    16  H    4.016399   2.490354   3.255150   1.070000   1.747303
    17  C    5.949955   4.591103   5.047014   1.540000   2.148263
    18  H    6.108200   4.794411   4.932286   2.148263   3.024610
    19  H    6.545655   5.340587   5.737246   2.148263   2.468847
    20  C    6.722824   5.145726   5.938582   2.514809   2.732977
    21  H    6.832025   5.287598   6.308726   2.732978   2.514810
    22  H    7.723936   6.155343   6.832021   3.444314   3.710993
    23  H    6.414128   4.735312   5.586721   2.732976   3.062241
                   16         17         18         19         20
    16  H    0.000000
    17  C    2.148263   0.000000
    18  H    2.468845   1.070000   0.000000
    19  H    3.024610   1.070000   1.747303   0.000000
    20  C    2.732978   1.540000   2.148263   2.148263   0.000000
    21  H    3.062245   2.148263   3.024610   2.468845   1.070000
    22  H    3.710992   2.148263   2.468845   2.468846   1.070000
    23  H    2.514809   2.148263   2.468847   3.024610   1.070000
                   21         22         23
    21  H    0.000000
    22  H    1.747303   0.000000
    23  H    1.747303   1.747303   0.000000
 Stoichiometry    C6H15ClSi
 Framework group  C1[X(C6H15ClSi)]
 Deg. of freedom    63
 Full point group                 C1      NOp   1
 Largest Abelian subgroup         C1      NOp   1
 Largest concise Abelian subgroup C1      NOp   1
                         Standard orientation:                         
 ---------------------------------------------------------------------
 Center     Atomic      Atomic             Coordinates (Angstroms)
 Number     Number       Type             X           Y           Z
 ---------------------------------------------------------------------
      1         14           0        1.069537    0.251133    0.000000
      2         17           0        2.808967   -1.029485   -0.000001
      3          6           0        1.090984    1.370988   -1.584002
      4          1           0        1.079155    0.753337   -2.457654
      5          1           0        0.229322    2.005368   -1.584002
      6          1           0        1.976304    1.971911   -1.584002
      7          6           0       -0.535623   -0.838391   -0.000001
      8          1           0       -0.547452   -1.456043    0.873650
      9          1           0       -0.547452   -1.456042   -0.873653
     10          6           0        1.090984    1.370985    1.584004
     11          1           0        1.976304    1.971908    1.584005
     12          1           0        0.229321    2.005366    1.584005
     13          1           0        1.079154    0.753333    2.457655
     14          6           0       -1.775772    0.074642   -0.000001
     15          1           0       -1.763943    0.692293   -0.873652
     16          1           0       -1.763943    0.692294    0.873651
     17          6           0       -3.049971   -0.790238    0.000001
     18          1           0       -3.061799   -1.407889    0.873653
     19          1           0       -3.061800   -1.407891   -0.873650
     20          6           0       -4.290120    0.122795    0.000000
     21          1           0       -4.278292    0.740444   -0.873654
     22          1           0       -5.175440   -0.478128    0.000003
     23          1           0       -4.278290    0.740449    0.873649
 ---------------------------------------------------------------------
 Rotational constants (GHZ):      2.3427305      0.5637320      0.5405768
 Standard basis: 6-311+G(d,p) (5D, 7F)
 There are   290 symmetry adapted cartesian basis functions of A   symmetry.
 There are   282 symmetry adapted basis functions of A   symmetry.
   282 basis functions,   439 primitive gaussians,   290 cartesian basis functions
    41 alpha electrons       41 beta electrons
       nuclear repulsion energy       533.2758220553 Hartrees.
 NAtoms=   23 NActive=   23 NUniq=   23 SFac= 1.00D+00 NAtFMM=   60 NAOKFM=F Big=F
 Integral buffers will be    131072 words long.
 Raffenetti 2 integral format.
 Two-electron integral symmetry is turned on.
 One-electron integrals computed using PRISM.
 NBasis=   282 RedAO= T EigKep=  1.02D-05  NBF=   282
 NBsUse=   282 1.00D-06 EigRej= -1.00D+00 NBFU=   282
 ExpMin= 3.31D-02 ExpMax= 1.06D+05 ExpMxC= 3.62D+03 IAcc=3 IRadAn=         5 AccDes= 0.00D+00
 Harris functional with IExCor=  402 and IRadAn=       5 diagonalized for initial guess.
 HarFok:  IExCor=  402 AccDes= 0.00D+00 IRadAn=         5 IDoV= 1 UseB2=F ITyADJ=14
 ICtDFT=  3500011 ScaDFX=  1.000000  1.000000  1.000000  1.000000
 FoFCou: FMM=F IPFlag=           0 FMFlag=      100000 FMFlg1=           0
         NFxFlg=           0 DoJE=T BraDBF=F KetDBF=T FulRan=T
         wScrn=  0.000000 ICntrl=     500 IOpCl=  0 I1Cent=   200000004 NGrid=           0
         NMat0=    1 NMatS0=      1 NMatT0=    0 NMatD0=    1 NMtDS0=    0 NMtDT0=    0
 Petite list used in FoFCou.
 Requested convergence on RMS density matrix=1.00D-08 within 128 cycles.
 Requested convergence on MAX density matrix=1.00D-06.
 Requested convergence on             energy=1.00D-06.
 No special actions if energy rises.
 SCF Done:  E(RB3LYP) =  -987.573360576     A.U. after   12 cycles
            NFock= 12  Conv=0.77D-08     -V/T= 2.0027

 **********************************************************************

            Population analysis using the SCF density.

 **********************************************************************

 Orbital symmetries:
       Occupied  (A) (A) (A) (A) (A) (A) (A) (A) (A) (A) (A) (A)
                 (A) (A) (A) (A) (A) (A) (A) (A) (A) (A) (A) (A)
                 (A) (A) (A) (A) (A) (A) (A) (A) (A) (A) (A) (A)
                 (A) (A) (A) (A) (A)
       Virtual   (A) (A) (A) (A) (A) (A) (A) (A) (A) (A) (A) (A)
                 (A) (A) (A) (A) (A) (A) (A) (A) (A) (A) (A) (A)
                 (A) (A) (A) (A) (A) (A) (A) (A) (A) (A) (A) (A)
                 (A) (A) (A) (A) (A) (A) (A) (A) (A) (A) (A) (A)
                 (A) (A) (A) (A) (A) (A) (A) (A) (A) (A) (A) (A)
                 (A) (A) (A) (A) (A) (A) (A) (A) (A) (A) (A) (A)
                 (A) (A) (A) (A) (A) (A) (A) (A) (A) (A) (A) (A)
                 (A) (A) (A) (A) (A) (A) (A) (A) (A) (A) (A) (A)
                 (A) (A) (A) (A) (A) (A) (A) (A) (A) (A) (A) (A)
                 (A) (A) (A) (A) (A) (A) (A) (A) (A) (A) (A) (A)
                 (A) (A) (A) (A) (A) (A) (A) (A) (A) (A) (A) (A)
                 (A) (A) (A) (A) (A) (A) (A) (A) (A) (A) (A) (A)
                 (A) (A) (A) (A) (A) (A) (A) (A) (A) (A) (A) (A)
                 (A) (A) (A) (A) (A) (A) (A) (A) (A) (A) (A) (A)
                 (A) (A) (A) (A) (A) (A) (A) (A) (A) (A) (A) (A)
                 (A) (A) (A) (A) (A) (A) (A) (A) (A) (A) (A) (A)
                 (A) (A) (A) (A) (A) (A) (A) (A) (A) (A) (A) (A)
                 (A) (A) (A) (A) (A) (A) (A) (A) (A) (A) (A) (A)
                 (A) (A) (A) (A) (A) (A) (A) (A) (A) (A) (A) (A)
                 (A) (A) (A) (A) (A) (A) (A) (A) (A) (A) (A) (A)
                 (A)
 The electronic state is 1-A.
 Alpha  occ. eigenvalues -- -101.52708 -66.13379 -10.17201 -10.16558 -10.16049
 Alpha  occ. eigenvalues --  -10.15688 -10.15688 -10.15488  -9.44142  -7.20351
 Alpha  occ. eigenvalues --   -7.19748  -7.19745  -5.30107  -3.66212  -3.65802
 Alpha  occ. eigenvalues --   -3.65775  -0.81139  -0.80368  -0.73823  -0.71290
 Alpha  occ. eigenvalues --   -0.69807  -0.63792  -0.59610  -0.49280  -0.48485
 Alpha  occ. eigenvalues --   -0.44343  -0.43608  -0.42831  -0.42562  -0.41600
 Alpha  occ. eigenvalues --   -0.40863  -0.39673  -0.37291  -0.37147  -0.35195
 Alpha  occ. eigenvalues --   -0.34787  -0.33973  -0.33290  -0.32383  -0.29502
 Alpha  occ. eigenvalues --   -0.28029
 Alpha virt. eigenvalues --   -0.01195   0.00838   0.01154   0.01302   0.01946
 Alpha virt. eigenvalues --    0.03361   0.03863   0.04035   0.05171   0.05269
 Alpha virt. eigenvalues --    0.05736   0.06904   0.07140   0.07657   0.08103
 Alpha virt. eigenvalues --    0.08472   0.09014   0.09151   0.09243   0.09862
 Alpha virt. eigenvalues --    0.10285   0.10735   0.11002   0.11455   0.11669
 Alpha virt. eigenvalues --    0.12438   0.13495   0.14377   0.14557   0.15365
 Alpha virt. eigenvalues --    0.16043   0.16148   0.16297   0.16448   0.18007
 Alpha virt. eigenvalues --    0.18611   0.18955   0.19515   0.20017   0.20485
 Alpha virt. eigenvalues --    0.21953   0.22365   0.23361   0.23673   0.23958
 Alpha virt. eigenvalues --    0.24716   0.26112   0.26729   0.27524   0.29433
 Alpha virt. eigenvalues --    0.29730   0.30324   0.30893   0.32189   0.32461
 Alpha virt. eigenvalues --    0.35183   0.36141   0.36288   0.39781   0.40561
 Alpha virt. eigenvalues --    0.42263   0.42404   0.45319   0.46675   0.49484
 Alpha virt. eigenvalues --    0.50266   0.50930   0.52183   0.52684   0.52882
 Alpha virt. eigenvalues --    0.53399   0.54332   0.55715   0.57611   0.58938
 Alpha virt. eigenvalues --    0.60459   0.61555   0.62191   0.63410   0.64340
 Alpha virt. eigenvalues --    0.65436   0.65615   0.66975   0.68227   0.68902
 Alpha virt. eigenvalues --    0.69065   0.69532   0.70310   0.71064   0.74524
 Alpha virt. eigenvalues --    0.74766   0.75477   0.75576   0.76315   0.78151
 Alpha virt. eigenvalues --    0.78834   0.78961   0.81334   0.81788   0.87672
 Alpha virt. eigenvalues --    0.89220   0.90467   0.90716   0.92277   0.93171
 Alpha virt. eigenvalues --    0.94669   0.96466   0.98115   1.00403   1.01167
 Alpha virt. eigenvalues --    1.03089   1.08639   1.10424   1.12060   1.17099
 Alpha virt. eigenvalues --    1.18178   1.23704   1.25252   1.25640   1.26398
 Alpha virt. eigenvalues --    1.27825   1.41578   1.43327   1.44301   1.45645
 Alpha virt. eigenvalues --    1.46144   1.46607   1.48397   1.52645   1.52785
 Alpha virt. eigenvalues --    1.53331   1.54813   1.56709   1.57365   1.57671
 Alpha virt. eigenvalues --    1.60020   1.60269   1.60720   1.61899   1.64880
 Alpha virt. eigenvalues --    1.65966   1.67899   1.71099   1.71402   1.72351
 Alpha virt. eigenvalues --    1.73628   1.74694   1.75157   1.76205   1.76535
 Alpha virt. eigenvalues --    1.77238   1.78683   1.80006   1.83000   1.89923
 Alpha virt. eigenvalues --    1.92387   1.98300   2.00813   2.04261   2.04738
 Alpha virt. eigenvalues --    2.07214   2.09471   2.14743   2.15579   2.18771
 Alpha virt. eigenvalues --    2.19828   2.20067   2.24220   2.26765   2.26923
 Alpha virt. eigenvalues --    2.28686   2.31674   2.32221   2.38575   2.39862
 Alpha virt. eigenvalues --    2.40739   2.42888   2.47059   2.49771   2.49904
 Alpha virt. eigenvalues --    2.50645   2.50696   2.53068   2.54317   2.55531
 Alpha virt. eigenvalues --    2.56214   2.56983   2.57852   2.57988   2.60061
 Alpha virt. eigenvalues --    2.60805   2.62119   2.63113   2.64996   2.65114
 Alpha virt. eigenvalues --    2.68189   2.69316   2.69753   2.73222   2.75865
 Alpha virt. eigenvalues --    2.77401   2.77988   2.83764   2.88605   2.90347
 Alpha virt. eigenvalues --    2.93112   2.93532   3.00516   3.05699   3.15311
 Alpha virt. eigenvalues --    3.19931   3.26846   3.38805   3.77499   3.77946
 Alpha virt. eigenvalues --    3.80759   3.81467   3.82076   3.84838   3.86587
 Alpha virt. eigenvalues --    3.89974   3.91015   4.11750   4.20998   4.28685
 Alpha virt. eigenvalues --    5.67938   9.76757  11.44419  11.44845  11.47100
 Alpha virt. eigenvalues --   23.88996  23.92087  23.94992  23.99112  24.01070
 Alpha virt. eigenvalues --   24.02985  25.95390  25.96296  26.33267 141.09340
 Alpha virt. eigenvalues --  215.76533
          Condensed to atoms (all electrons):
               1          2          3          4          5          6
     1  Si  12.639653   0.513213   0.034019  -0.022032   0.050187  -0.020647
     2  Cl   0.513213  17.038245  -0.130143  -0.000535   0.005943  -0.002112
     3  C    0.034019  -0.130143   5.882899   0.376880   0.320971   0.382337
     4  H   -0.022032  -0.000535   0.376880   0.496686  -0.018514  -0.015727
     5  H    0.050187   0.005943   0.320971  -0.018514   0.523429  -0.018991
     6  H   -0.020647  -0.002112   0.382337  -0.015727  -0.018991   0.497559
     7  C   -0.184256  -0.118775  -0.121629   0.005393  -0.031314   0.013820
     8  H   -0.004867   0.006477   0.007583  -0.000084  -0.000079  -0.000083
     9  H   -0.004867   0.006477  -0.010589   0.000964   0.000540  -0.000170
    10  C    0.034019  -0.130143  -0.080550   0.012939  -0.009572  -0.008679
    11  H   -0.020647  -0.002112  -0.008679  -0.000071   0.000252   0.001123
    12  H    0.050187   0.005943  -0.009572  -0.000052   0.000178   0.000252
    13  H   -0.022032  -0.000535   0.012939  -0.000160  -0.000052  -0.000071
    14  C    0.290310   0.004904   0.044111  -0.009195   0.017356  -0.001281
    15  H    0.010811   0.000752  -0.002004  -0.000126   0.001399   0.000198
    16  H    0.010811   0.000752  -0.004658   0.000123  -0.000021  -0.000057
    17  C   -0.152844  -0.013679   0.023764  -0.001636  -0.003177  -0.000173
    18  H    0.006669   0.000033  -0.000937   0.000004   0.000005   0.000001
    19  H    0.006669   0.000033  -0.000371   0.000004   0.000027  -0.000001
    20  C   -0.009639  -0.000386   0.001745  -0.000154   0.000349   0.000012
    21  H    0.001263   0.000001  -0.000464   0.000002  -0.000006   0.000001
    22  H   -0.000585   0.000000   0.000015   0.000000   0.000001   0.000000
    23  H    0.001263   0.000001   0.000107  -0.000001   0.000006   0.000000
               7          8          9         10         11         12
     1  Si  -0.184256  -0.004867  -0.004867   0.034019  -0.020647   0.050187
     2  Cl  -0.118775   0.006477   0.006477  -0.130143  -0.002112   0.005943
     3  C   -0.121629   0.007583  -0.010589  -0.080550  -0.008679  -0.009572
     4  H    0.005393  -0.000084   0.000964   0.012939  -0.000071  -0.000052
     5  H   -0.031314  -0.000079   0.000540  -0.009572   0.000252   0.000178
     6  H    0.013820  -0.000083  -0.000170  -0.008679   0.001123   0.000252
     7  C    7.365258   0.381686   0.381687  -0.121627   0.013820  -0.031314
     8  H    0.381686   0.504251  -0.018550  -0.010589  -0.000170   0.000540
     9  H    0.381687  -0.018550   0.504251   0.007583  -0.000083  -0.000079
    10  C   -0.121627  -0.010589   0.007583   5.882900   0.382337   0.320971
    11  H    0.013820  -0.000170  -0.000083   0.382337   0.497559  -0.018991
    12  H   -0.031314   0.000540  -0.000079   0.320971  -0.018991   0.523429
    13  H    0.005393   0.000964  -0.000084   0.376880  -0.015727  -0.018514
    14  C   -1.092286  -0.028826  -0.028826   0.044110  -0.001281   0.017356
    15  H   -0.081273   0.007674  -0.005630  -0.004658  -0.000057  -0.000021
    16  H   -0.081272  -0.005630   0.007674  -0.002004   0.000198   0.001399
    17  C    0.410255  -0.026019  -0.026019   0.023764  -0.000173  -0.003177
    18  H   -0.016001   0.004518  -0.000830  -0.000371  -0.000001   0.000027
    19  H   -0.016001  -0.000830   0.004518  -0.000937   0.000001   0.000005
    20  C   -0.156096   0.003029   0.003029   0.001745   0.000012   0.000349
    21  H    0.000527   0.000021  -0.000014   0.000107   0.000000   0.000006
    22  H    0.005497  -0.000054  -0.000054   0.000015   0.000000   0.000001
    23  H    0.000527  -0.000014   0.000021  -0.000464   0.000001  -0.000006
              13         14         15         16         17         18
     1  Si  -0.022032   0.290310   0.010811   0.010811  -0.152844   0.006669
     2  Cl  -0.000535   0.004904   0.000752   0.000752  -0.013679   0.000033
     3  C    0.012939   0.044111  -0.002004  -0.004658   0.023764  -0.000937
     4  H   -0.000160  -0.009195  -0.000126   0.000123  -0.001636   0.000004
     5  H   -0.000052   0.017356   0.001399  -0.000021  -0.003177   0.000005
     6  H   -0.000071  -0.001281   0.000198  -0.000057  -0.000173   0.000001
     7  C    0.005393  -1.092286  -0.081273  -0.081272   0.410255  -0.016001
     8  H    0.000964  -0.028826   0.007674  -0.005630  -0.026019   0.004518
     9  H   -0.000084  -0.028826  -0.005630   0.007674  -0.026019  -0.000830
    10  C    0.376880   0.044110  -0.004658  -0.002004   0.023764  -0.000371
    11  H   -0.015727  -0.001281  -0.000057   0.000198  -0.000173  -0.000001
    12  H   -0.018514   0.017356  -0.000021   0.001399  -0.003177   0.000027
    13  H    0.496686  -0.009195   0.000123  -0.000126  -0.001636   0.000004
    14  C   -0.009195   6.343772   0.484602   0.484601  -0.314880  -0.036120
    15  H    0.000123   0.484602   0.569375  -0.039019  -0.091304   0.009092
    16  H   -0.000126   0.484601  -0.039019   0.569376  -0.091303  -0.008491
    17  C   -0.001636  -0.314880  -0.091304  -0.091303   5.652476   0.422914
    18  H    0.000004  -0.036120   0.009092  -0.008491   0.422914   0.566001
    19  H    0.000004  -0.036120  -0.008491   0.009092   0.422915  -0.034999
    20  C   -0.000154   0.076713   0.005690   0.005690   0.081739  -0.046551
    21  H   -0.000001  -0.027483   0.005405  -0.001184  -0.022573   0.008739
    22  H    0.000000   0.031474  -0.000109  -0.000109  -0.061125  -0.004984
    23  H    0.000002  -0.027482  -0.001184   0.005405  -0.022573  -0.008549
              19         20         21         22         23
     1  Si   0.006669  -0.009639   0.001263  -0.000585   0.001263
     2  Cl   0.000033  -0.000386   0.000001   0.000000   0.000001
     3  C   -0.000371   0.001745  -0.000464   0.000015   0.000107
     4  H    0.000004  -0.000154   0.000002   0.000000  -0.000001
     5  H    0.000027   0.000349  -0.000006   0.000001   0.000006
     6  H   -0.000001   0.000012   0.000001   0.000000   0.000000
     7  C   -0.016001  -0.156096   0.000527   0.005497   0.000527
     8  H   -0.000830   0.003029   0.000021  -0.000054  -0.000014
     9  H    0.004518   0.003029  -0.000014  -0.000054   0.000021
    10  C   -0.000937   0.001745   0.000107   0.000015  -0.000464
    11  H    0.000001   0.000012   0.000000   0.000000   0.000001
    12  H    0.000005   0.000349   0.000006   0.000001  -0.000006
    13  H    0.000004  -0.000154  -0.000001   0.000000   0.000002
    14  C   -0.036120   0.076713  -0.027483   0.031474  -0.027482
    15  H   -0.008491   0.005690   0.005405  -0.000109  -0.001184
    16  H    0.009092   0.005690  -0.001184  -0.000109   0.005405
    17  C    0.422915   0.081739  -0.022573  -0.061125  -0.022573
    18  H   -0.034999  -0.046551   0.008739  -0.004984  -0.008549
    19  H    0.566001  -0.046551  -0.008549  -0.004984   0.008739
    20  C   -0.046551   5.388910   0.414174   0.403729   0.414174
    21  H   -0.008549   0.414174   0.559113  -0.025675  -0.033847
    22  H   -0.004984   0.403729  -0.025675   0.544896  -0.025675
    23  H    0.008739   0.414174  -0.033847  -0.025675   0.559113
 Mulliken charges:
               1
     1  Si   0.793344
     2  Cl  -0.184357
     3  C   -0.717776
     4  H    0.175294
     5  H    0.161084
     6  H    0.172689
     7  C   -0.532020
     8  H    0.179054
     9  H    0.179054
    10  C   -0.717776
    11  H    0.172689
    12  H    0.161084
    13  H    0.175294
    14  C   -0.226333
    15  H    0.138755
    16  H    0.138755
    17  C   -0.205534
    18  H    0.139827
    19  H    0.139827
    20  C   -0.541559
    21  H    0.130438
    22  H    0.137729
    23  H    0.130438
 Sum of Mulliken charges =   0.00000
 Mulliken charges with hydrogens summed into heavy atoms:
               1
     1  Si   0.793344
     2  Cl  -0.184357
     3  C   -0.208710
     7  C   -0.173912
    10  C   -0.208710
    14  C    0.051178
    17  C    0.074121
    20  C   -0.142954
 Electronic spatial extent (au):  <R**2>=           2248.4728
 Charge=              0.0000 electrons
 Dipole moment (field-independent basis, Debye):
    X=             -2.3901    Y=              1.3828    Z=              0.0000  Tot=              2.7613
 Quadrupole moment (field-independent basis, Debye-Ang):
   XX=            -75.1295   YY=            -68.5747   ZZ=            -66.6246
   XY=              4.4259   XZ=              0.0000   YZ=              0.0000
 Traceless Quadrupole moment (field-independent basis, Debye-Ang):
   XX=             -5.0199   YY=              1.5349   ZZ=              3.4850
   XY=              4.4259   XZ=              0.0000   YZ=              0.0000
 Octapole moment (field-independent basis, Debye-Ang**2):
  XXX=             -7.7910  YYY=             -1.3631  ZZZ=              0.0000  XYY=              1.0472
  XXY=              6.1403  XXZ=              0.0000  XZZ=              0.4663  YZZ=             -4.4719
  YYZ=              0.0000  XYZ=              0.0000
 Hexadecapole moment (field-independent basis, Debye-Ang**3):
 XXXX=          -2389.6905 YYYY=           -465.5696 ZZZZ=           -373.3983 XXXY=             36.9633
 XXXZ=             -0.0001 YYYX=             -5.8048 YYYZ=              0.0000 ZZZX=              0.0000
 ZZZY=              0.0000 XXYY=           -458.3800 XXZZ=           -443.5898 YYZZ=           -142.8835
 XXYZ=              0.0000 YYXZ=              0.0000 ZZXY=             -5.4455
 N-N= 5.332758220553D+02 E-N=-3.400334527772D+03  KE= 9.849447400054D+02
 There are a total of      189612 grid points.
 ElSum from          density=       82.0000086723
 ElSum from atomic densities=       82.0001047621

 Hirshfeld populations at iteration   1 (CX, CA, CB, DipXYZ):
               1          2          3          4          5          6
     1  Si   0.000000   6.788530   6.788530   0.022061   0.006901   0.000000
     2  Cl   0.000007   8.609581   8.609581   0.009842  -0.010568   0.000000
     3  C    0.000000   3.100513   3.100513  -0.005291   0.065804  -0.084214
     4  H    0.000002   0.478960   0.478960  -0.004243  -0.092987  -0.132641
     5  H    0.000001   0.479173   0.479173  -0.125244   0.097100  -0.000874
     6  H    0.000002   0.478749   0.478749   0.132847   0.093403   0.001031
     7  C    0.000000   3.078362   3.078362  -0.116458  -0.050810   0.000000
     8  H    0.000002   0.480730   0.480730  -0.009075  -0.086831   0.130624
     9  H    0.000002   0.480730   0.480730  -0.009075  -0.086831  -0.130624
    10  C    0.000000   3.100513   3.100513  -0.005291   0.065803   0.084214
    11  H    0.000002   0.478749   0.478749   0.132847   0.093403  -0.001031
    12  H    0.000001   0.479173   0.479173  -0.125244   0.097100   0.000875
    13  H    0.000002   0.478960   0.478960  -0.004243  -0.092987   0.132641
    14  C    0.000000   3.026871   3.026871  -0.008682  -0.012127   0.000000
    15  H    0.000000   0.483073   0.483073  -0.001803   0.075278  -0.121701
    16  H    0.000000   0.483073   0.483073  -0.001803   0.075278   0.121701
    17  C    0.000000   3.027493   3.027493  -0.007233   0.010136   0.000000
    18  H    0.000000   0.483145   0.483145  -0.007379  -0.078255   0.123006
    19  H    0.000000   0.483145   0.483145  -0.007379  -0.078256  -0.123006
    20  C    0.000000   3.051144   3.051144   0.011766  -0.012158   0.000000
    21  H    0.000000   0.483273   0.483273   0.003536   0.079843  -0.122389
    22  H    0.000000   0.482789   0.482789  -0.117333  -0.090603   0.000001
    23  H    0.000000   0.483273   0.483273   0.003536   0.079844   0.122389
       Tot   0.000023  41.000004  41.000004  -0.239341   0.147481   0.000000

 Dip from Atomic Chgs             -0.700172   0.396462   0.000000
         Total Dipole             -0.939513   0.543943   0.000000

 Hirshfeld charges, spin densities, dipoles, and CM5 charges using IRadAn=      4:
              Q-H        S-H        Dx         Dy         Dz        Q-CM5   
     1  Si   0.422940   0.000000   0.022061   0.006901   0.000000   0.306939
     2  Cl  -0.219163   0.000000   0.009842  -0.010568   0.000000  -0.253542
     3  C   -0.201025   0.000000  -0.005291   0.065804  -0.084214  -0.322296
     4  H    0.042080   0.000000  -0.004243  -0.092987  -0.132641   0.099100
     5  H    0.041654   0.000000  -0.125244   0.097100  -0.000874   0.098838
     6  H    0.042501   0.000000   0.132847   0.093403   0.001031   0.099474
     7  C   -0.156725   0.000000  -0.116458  -0.050810   0.000000  -0.236178
     8  H    0.038540   0.000000  -0.009075  -0.086831   0.130624   0.099831
     9  H    0.038540   0.000000  -0.009075  -0.086831  -0.130624   0.099831
    10  C   -0.201025   0.000000  -0.005291   0.065803   0.084214  -0.322296
    11  H    0.042501   0.000000   0.132847   0.093403  -0.001031   0.099474
    12  H    0.041654   0.000000  -0.125244   0.097100   0.000875   0.098838
    13  H    0.042080   0.000000  -0.004243  -0.092987   0.132641   0.099100
    14  C   -0.053741   0.000000  -0.008682  -0.012127   0.000000  -0.167312
    15  H    0.033853   0.000000  -0.001803   0.075278  -0.121701   0.094192
    16  H    0.033853   0.000000  -0.001803   0.075278   0.121701   0.094192
    17  C   -0.054986   0.000000  -0.007233   0.010136   0.000000  -0.174372
    18  H    0.033709   0.000000  -0.007379  -0.078255   0.123006   0.091744
    19  H    0.033709   0.000000  -0.007379  -0.078256  -0.123006   0.091745
    20  C   -0.102288   0.000000   0.011766  -0.012158   0.000000  -0.261545
    21  H    0.033454   0.000000   0.003536   0.079843  -0.122389   0.087989
    22  H    0.034421   0.000000  -0.117333  -0.090603   0.000001   0.088255
    23  H    0.033454   0.000000   0.003536   0.079844   0.122389   0.087989
       Tot  -0.000009   0.000000  -0.239341   0.147481   0.000000  -0.000009
 Hirshfeld charges with hydrogens summed into heavy atoms:
              Q-H       Q-CM5   
     1  Si   0.422940   0.306939
     2  Cl  -0.219163  -0.253542
     3  C   -0.074790  -0.024883
     7  C   -0.079645  -0.036515
    10  C   -0.074790  -0.024883
    14  C    0.013965   0.021071
    17  C    0.012432   0.009117
    20  C   -0.000959   0.002687
 
 EQQ= 0.000000000000E+00 EQD= 0.000000000000E+00 EDD= 0.333721361428E-02
 EQQ+QD+DD= 0.333721361428E-02
 
          MBS Condensed to atoms (all electrons):
               1          2          3          4          5          6
     1  Si  12.169760   0.225124   0.341637  -0.015204  -0.014039  -0.015005
     2  Cl   0.225124  17.184020  -0.005368   0.000017   0.000149   0.000006
     3  C    0.341637  -0.005368   4.993754   0.375609   0.374292   0.375718
     4  H   -0.015204   0.000017   0.375609   0.572315  -0.021349  -0.021123
     5  H   -0.014039   0.000149   0.374292  -0.021349   0.577056  -0.021179
     6  H   -0.015005   0.000006   0.375718  -0.021123  -0.021179   0.570904
     7  C    0.341399  -0.005392  -0.007033  -0.000221  -0.000130   0.000201
     8  H   -0.016582   0.000055   0.000199   0.000001   0.000001  -0.000005
     9  H   -0.016582   0.000055  -0.000192   0.000129   0.000027  -0.000002
    10  C    0.341637  -0.005368  -0.007421   0.000215  -0.000047  -0.000198
    11  H   -0.015005   0.000006  -0.000198  -0.000001   0.000019   0.000108
    12  H   -0.014039   0.000149  -0.000047  -0.000001   0.000014   0.000019
    13  H   -0.015204   0.000017   0.000215  -0.000006  -0.000001  -0.000001
    14  C   -0.013090   0.000051  -0.000639   0.000024  -0.000298   0.000016
    15  H   -0.002744   0.000001   0.000003   0.000037   0.000698  -0.000013
    16  H   -0.002744   0.000001   0.000029   0.000003   0.000020  -0.000002
    17  C    0.000870   0.000000   0.000001  -0.000001   0.000000   0.000000
    18  H    0.000004   0.000000   0.000000   0.000000   0.000000   0.000000
    19  H    0.000004   0.000000   0.000000   0.000000   0.000000   0.000000
    20  C   -0.000012   0.000000   0.000000   0.000000   0.000000   0.000000
    21  H    0.000000   0.000000   0.000000   0.000000   0.000000   0.000000
    22  H    0.000000   0.000000   0.000000   0.000000   0.000000   0.000000
    23  H    0.000000   0.000000   0.000000   0.000000   0.000000   0.000000
               7          8          9         10         11         12
     1  Si   0.341399  -0.016582  -0.016582   0.341637  -0.015005  -0.014039
     2  Cl  -0.005392   0.000055   0.000055  -0.005368   0.000006   0.000149
     3  C   -0.007033   0.000199  -0.000192  -0.007421  -0.000198  -0.000047
     4  H   -0.000221   0.000001   0.000129   0.000215  -0.000001  -0.000001
     5  H   -0.000130   0.000001   0.000027  -0.000047   0.000019   0.000014
     6  H    0.000201  -0.000005  -0.000002  -0.000198   0.000108   0.000019
     7  C    4.963844   0.374407   0.374407  -0.007033   0.000201  -0.000130
     8  H    0.374407   0.591323  -0.023040  -0.000192  -0.000002   0.000027
     9  H    0.374407  -0.023040   0.591323   0.000199  -0.000005   0.000001
    10  C   -0.007033  -0.000192   0.000199   4.993754   0.375718   0.374292
    11  H    0.000201  -0.000002  -0.000005   0.375718   0.570904  -0.021179
    12  H   -0.000130   0.000027   0.000001   0.374292  -0.021179   0.577056
    13  H   -0.000221   0.000129   0.000001   0.375609  -0.021123  -0.021349
    14  C    0.356451  -0.022971  -0.022971  -0.000639   0.000016  -0.000298
    15  H   -0.024690   0.002409  -0.002533   0.000029  -0.000002   0.000020
    16  H   -0.024690  -0.002533   0.002409   0.000003  -0.000013   0.000698
    17  C   -0.024583  -0.002907  -0.002907   0.000001   0.000000   0.000000
    18  H   -0.002375   0.001290  -0.000049   0.000000   0.000000   0.000000
    19  H   -0.002375  -0.000049   0.001290   0.000000   0.000000   0.000000
    20  C    0.000905   0.000015   0.000015   0.000000   0.000000   0.000000
    21  H    0.000009   0.000001   0.000003   0.000000   0.000000   0.000000
    22  H   -0.000028   0.000000   0.000000   0.000000   0.000000   0.000000
    23  H    0.000009   0.000003   0.000001   0.000000   0.000000   0.000000
              13         14         15         16         17         18
     1  Si  -0.015204  -0.013090  -0.002744  -0.002744   0.000870   0.000004
     2  Cl   0.000017   0.000051   0.000001   0.000001   0.000000   0.000000
     3  C    0.000215  -0.000639   0.000003   0.000029   0.000001   0.000000
     4  H   -0.000006   0.000024   0.000037   0.000003  -0.000001   0.000000
     5  H   -0.000001  -0.000298   0.000698   0.000020   0.000000   0.000000
     6  H   -0.000001   0.000016  -0.000013  -0.000002   0.000000   0.000000
     7  C   -0.000221   0.356451  -0.024690  -0.024690  -0.024583  -0.002375
     8  H    0.000129  -0.022971   0.002409  -0.002533  -0.002907   0.001290
     9  H    0.000001  -0.022971  -0.002533   0.002409  -0.002907  -0.000049
    10  C    0.375609  -0.000639   0.000029   0.000003   0.000001   0.000000
    11  H   -0.021123   0.000016  -0.000002  -0.000013   0.000000   0.000000
    12  H   -0.021349  -0.000298   0.000020   0.000698   0.000000   0.000000
    13  H    0.572315   0.000024   0.000003   0.000037  -0.000001   0.000000
    14  C    0.000024   4.811611   0.381026   0.381026   0.366884  -0.024214
    15  H    0.000003   0.381026   0.614118  -0.025227  -0.024244   0.002375
    16  H    0.000037   0.381026  -0.025227   0.614118  -0.024244  -0.002725
    17  C   -0.000001   0.366884  -0.024244  -0.024244   4.801223   0.382260
    18  H    0.000000  -0.024214   0.002375  -0.002725   0.382260   0.609052
    19  H    0.000000  -0.024214  -0.002725   0.002375   0.382260  -0.025122
    20  C    0.000000  -0.025389  -0.002383  -0.002383   0.362872  -0.023313
    21  H    0.000000  -0.002814   0.001289  -0.000062  -0.023147   0.002354
    22  H    0.000000   0.001589   0.000012   0.000012  -0.021204  -0.002253
    23  H    0.000000  -0.002814  -0.000062   0.001289  -0.023147  -0.002675
              19         20         21         22         23
     1  Si   0.000004  -0.000012   0.000000   0.000000   0.000000
     2  Cl   0.000000   0.000000   0.000000   0.000000   0.000000
     3  C    0.000000   0.000000   0.000000   0.000000   0.000000
     4  H    0.000000   0.000000   0.000000   0.000000   0.000000
     5  H    0.000000   0.000000   0.000000   0.000000   0.000000
     6  H    0.000000   0.000000   0.000000   0.000000   0.000000
     7  C   -0.002375   0.000905   0.000009  -0.000028   0.000009
     8  H   -0.000049   0.000015   0.000001   0.000000   0.000003
     9  H    0.001290   0.000015   0.000003   0.000000   0.000001
    10  C    0.000000   0.000000   0.000000   0.000000   0.000000
    11  H    0.000000   0.000000   0.000000   0.000000   0.000000
    12  H    0.000000   0.000000   0.000000   0.000000   0.000000
    13  H    0.000000   0.000000   0.000000   0.000000   0.000000
    14  C   -0.024214  -0.025389  -0.002814   0.001589  -0.002814
    15  H   -0.002725  -0.002383   0.001289   0.000012  -0.000062
    16  H    0.002375  -0.002383  -0.000062   0.000012   0.001289
    17  C    0.382260   0.362872  -0.023147  -0.021204  -0.023147
    18  H   -0.025122  -0.023313   0.002354  -0.002253  -0.002675
    19  H    0.609052  -0.023313  -0.002675  -0.002253   0.002354
    20  C   -0.023313   4.839044   0.383150   0.382079   0.383150
    21  H   -0.002675   0.383150   0.600154  -0.022945  -0.023673
    22  H   -0.002253   0.382079  -0.022945   0.596683  -0.022945
    23  H    0.002354   0.383150  -0.023673  -0.022945   0.600154
 MBS Mulliken charges:
               1
     1  Si   0.719813
     2  Cl  -0.393522
     3  C   -0.440558
     4  H    0.109555
     5  H    0.104767
     6  H    0.110558
     7  C   -0.312933
     8  H    0.098421
     9  H    0.098421
    10  C   -0.440558
    11  H    0.110558
    12  H    0.104767
    13  H    0.109555
    14  C   -0.158365
    15  H    0.082602
    16  H    0.082602
    17  C   -0.149986
    18  H    0.085390
    19  H    0.085390
    20  C   -0.274437
    21  H    0.088354
    22  H    0.091250
    23  H    0.088354
 Sum of MBS Mulliken charges =   0.00000
 MBS Mulliken charges with hydrogens summed into heavy atoms:
               1
     1  Si   0.719813
     2  Cl  -0.393522
     3  C   -0.115678
     7  C   -0.116090
    10  C   -0.115678
    14  C    0.006839
    17  C    0.020795
    20  C   -0.006479
 Breneman (CHELPG) radii used.
 Generate Potential Derived Charges using the Breneman model, NDens= 1.
 Grid spacing= 0.300 Box extension= 2.800
 NStep X,Y,Z=   47     31     37   Total possible points=       53909
 Number of Points to Fit=   14727

 **********************************************************************

            Electrostatic Properties Using The SCF Density

 **********************************************************************

       Atomic Center    1 is at   1.069537  0.251133  0.000000
       Atomic Center    2 is at   2.808967 -1.029485 -0.000001
       Atomic Center    3 is at   1.090984  1.370988 -1.584002
       Atomic Center    4 is at   1.079155  0.753337 -2.457654
       Atomic Center    5 is at   0.229322  2.005368 -1.584002
       Atomic Center    6 is at   1.976304  1.971911 -1.584002
       Atomic Center    7 is at  -0.535623 -0.838391 -0.000001
       Atomic Center    8 is at  -0.547452 -1.456043  0.873650
       Atomic Center    9 is at  -0.547452 -1.456042 -0.873653
       Atomic Center   10 is at   1.090984  1.370985  1.584004
       Atomic Center   11 is at   1.976304  1.971908  1.584005
       Atomic Center   12 is at   0.229321  2.005366  1.584005
       Atomic Center   13 is at   1.079154  0.753333  2.457655
       Atomic Center   14 is at  -1.775772  0.074642 -0.000001
       Atomic Center   15 is at  -1.763943  0.692293 -0.873652
       Atomic Center   16 is at  -1.763943  0.692294  0.873651
       Atomic Center   17 is at  -3.049971 -0.790238  0.000001
       Atomic Center   18 is at  -3.061799 -1.407889  0.873653
       Atomic Center   19 is at  -3.061800 -1.407891 -0.873650
       Atomic Center   20 is at  -4.290120  0.122795  0.000000
       Atomic Center   21 is at  -4.278292  0.740444 -0.873654
       Atomic Center   22 is at  -5.175440 -0.478128  0.000003
       Atomic Center   23 is at  -4.278290  0.740449  0.873649
   14727 points will be used for fitting atomic charges
 Fitting point charges to electrostatic potential
 Charges from ESP fit, RMS=   0.00239 RRMS=   0.23932:
 ESP charges:
               1
     1  Si   0.680695
     2  Cl  -0.328313
     3  C   -0.365184
     4  H    0.082641
     5  H    0.073559
     6  H    0.080245
     7  C   -0.332149
     8  H    0.051715
     9  H    0.051715
    10  C   -0.365184
    11  H    0.080245
    12  H    0.073559
    13  H    0.082641
    14  C    0.196299
    15  H   -0.032761
    16  H   -0.032762
    17  C    0.157686
    18  H   -0.028018
    19  H   -0.028018
    20  C   -0.244948
    21  H    0.043308
    22  H    0.059722
    23  H    0.043308
 Sum of ESP charges =   0.00000
 ESP charges with hydrogens summed into heavy atoms:
               1
     1  Si   0.680695
     2  Cl  -0.328313
     3  C   -0.128739
     7  C   -0.228719
    10  C   -0.128739
    14  C    0.130776
    17  C    0.101649
    20  C   -0.098609
 Charge=   0.00000 Dipole=    -2.4574     1.4437     0.0000 Tot=     2.8501
 -----------------------------------------------------------------

              Electrostatic Properties (Atomic Units)

 -----------------------------------------------------------------
    Center     Electric         -------- Electric Field --------
               Potential          X             Y             Z
 -----------------------------------------------------------------
    1 Atom    -49.252138
    2 Atom    -64.423337
    3 Atom    -14.790039
    4 Atom     -1.109275
    5 Atom     -1.104869
    6 Atom     -1.109180
    7 Atom    -14.786315
    8 Atom     -1.117205
    9 Atom     -1.117205
   10 Atom    -14.790039
   11 Atom     -1.109180
   12 Atom     -1.104869
   13 Atom     -1.109275
   14 Atom    -14.774316
   15 Atom     -1.124070
   16 Atom     -1.124070
   17 Atom    -14.780778
   18 Atom     -1.130518
   19 Atom     -1.130518
   20 Atom    -14.792118
   21 Atom     -1.127679
   22 Atom     -1.128953
   23 Atom     -1.127679
 -----------------------------------------------------------------
 ******************************Gaussian NBO Version 3.1******************************
             N A T U R A L   A T O M I C   O R B I T A L   A N D
          N A T U R A L   B O N D   O R B I T A L   A N A L Y S I S
 ******************************Gaussian NBO Version 3.1******************************
       /RESON  / : Allow strongly delocalized NBO set

 Analyzing the SCF density

 Job title: Title Card Required                                             

 Storage needed:    240464 in NPA ( 536868037 available)


 NATURAL POPULATIONS:  Natural atomic orbital occupancies 
                                                          
   NAO  Atom  No  lang   Type(AO)    Occupancy      Energy
 ----------------------------------------------------------
     1   Si    1  S      Cor( 1S)     2.00000     -65.37467
     2   Si    1  S      Cor( 2S)     1.99918      -5.94579
     3   Si    1  S      Val( 3S)     0.91873      -0.24821
     4   Si    1  S      Ryd( 4S)     0.00088       0.42804
     5   Si    1  S      Ryd( 5S)     0.00035       0.84044
     6   Si    1  S      Ryd( 6S)     0.00004       8.61870
     7   Si    1  S      Ryd( 7S)     0.00000     137.45252
     8   Si    1  px     Cor( 2p)     1.99969      -3.65461
     9   Si    1  px     Val( 3p)     0.46837      -0.01325
    10   Si    1  px     Ryd( 6p)     0.00336       0.94698
    11   Si    1  px     Ryd( 4p)     0.00099       0.43603
    12   Si    1  px     Ryd( 5p)     0.00046       0.90030
    13   Si    1  px     Ryd( 7p)     0.00001      11.00664
    14   Si    1  py     Cor( 2p)     1.99977      -3.65272
    15   Si    1  py     Val( 3p)     0.51814       0.00122
    16   Si    1  py     Ryd( 5p)     0.00365       0.89944
    17   Si    1  py     Ryd( 4p)     0.00055       0.40158
    18   Si    1  py     Ryd( 6p)     0.00039       0.91737
    19   Si    1  py     Ryd( 7p)     0.00001      10.98226
    20   Si    1  pz     Cor( 2p)     1.99986      -3.65099
    21   Si    1  pz     Val( 3p)     0.54717       0.01492
    22   Si    1  pz     Ryd( 5p)     0.00362       0.90743
    23   Si    1  pz     Ryd( 4p)     0.00038       0.40389
    24   Si    1  pz     Ryd( 6p)     0.00022       0.94207
    25   Si    1  pz     Ryd( 7p)     0.00001      10.97868
    26   Si    1  dxy    Ryd( 3d)     0.00960       1.08191
    27   Si    1  dxz    Ryd( 3d)     0.00316       0.85349
    28   Si    1  dyz    Ryd( 3d)     0.00720       1.19035
    29   Si    1  dx2y2  Ryd( 3d)     0.00480       0.90192
    30   Si    1  dz2    Ryd( 3d)     0.00670       1.05761

    31   Cl    2  S      Cor( 1S)     2.00000    -100.27237
    32   Cl    2  S      Cor( 2S)     1.99983     -10.36655
    33   Cl    2  S      Val( 3S)     1.89550      -1.04182
    34   Cl    2  S      Ryd( 5S)     0.00063       1.03563
    35   Cl    2  S      Ryd( 4S)     0.00008       0.99482
    36   Cl    2  S      Ryd( 6S)     0.00000      17.12057
    37   Cl    2  S      Ryd( 7S)     0.00000     207.75828
    38   Cl    2  px     Cor( 2p)     1.99995      -7.19566
    39   Cl    2  px     Val( 3p)     1.71698      -0.30894
    40   Cl    2  px     Ryd( 5p)     0.00041       0.48931
    41   Cl    2  px     Ryd( 4p)     0.00012       0.34937
    42   Cl    2  px     Ryd( 6p)     0.00008       3.77808
    43   Cl    2  px     Ryd( 7p)     0.00000      24.51563
    44   Cl    2  py     Cor( 2p)     1.99997      -7.19426
    45   Cl    2  py     Val( 3p)     1.82195      -0.30933
    46   Cl    2  py     Ryd( 5p)     0.00027       0.46739
    47   Cl    2  py     Ryd( 4p)     0.00008       0.34985
    48   Cl    2  py     Ryd( 6p)     0.00004       3.69696
    49   Cl    2  py     Ryd( 7p)     0.00000      24.47992
    50   Cl    2  pz     Cor( 2p)     2.00000      -7.19246
    51   Cl    2  pz     Val( 3p)     1.95335      -0.30967
    52   Cl    2  pz     Ryd( 5p)     0.00013       0.46026
    53   Cl    2  pz     Ryd( 4p)     0.00012       0.36718
    54   Cl    2  pz     Ryd( 6p)     0.00001       3.62138
    55   Cl    2  pz     Ryd( 7p)     0.00000      24.43730
    56   Cl    2  dxy    Ryd( 3d)     0.00367       0.98814
    57   Cl    2  dxz    Ryd( 3d)     0.00075       0.93374
    58   Cl    2  dyz    Ryd( 3d)     0.00045       0.90591
    59   Cl    2  dx2y2  Ryd( 3d)     0.00142       0.94410
    60   Cl    2  dz2    Ryd( 3d)     0.00131       0.92478

    61    C    3  S      Cor( 1S)     1.99931     -10.01157
    62    C    3  S      Val( 2S)     1.19197      -0.33232
    63    C    3  S      Ryd( 4S)     0.00346       0.96125
    64    C    3  S      Ryd( 3S)     0.00012       0.40278
    65    C    3  S      Ryd( 5S)     0.00000      23.46786
    66    C    3  px     Val( 2p)     1.24185      -0.10816
    67    C    3  px     Ryd( 4p)     0.00109       0.64789
    68    C    3  px     Ryd( 3p)     0.00019       0.35282
    69    C    3  px     Ryd( 5p)     0.00002       2.94872
    70    C    3  py     Val( 2p)     1.28016      -0.12796
    71    C    3  py     Ryd( 4p)     0.00196       0.65007
    72    C    3  py     Ryd( 3p)     0.00016       0.33946
    73    C    3  py     Ryd( 5p)     0.00004       2.86578
    74    C    3  pz     Val( 2p)     1.31947      -0.14839
    75    C    3  pz     Ryd( 4p)     0.00323       0.65519
    76    C    3  pz     Ryd( 3p)     0.00026       0.32351
    77    C    3  pz     Ryd( 5p)     0.00004       2.79770
    78    C    3  dxy    Ryd( 3d)     0.00098       2.25169
    79    C    3  dxz    Ryd( 3d)     0.00003       1.69394
    80    C    3  dyz    Ryd( 3d)     0.00108       2.00119
    81    C    3  dx2y2  Ryd( 3d)     0.00032       1.81429
    82    C    3  dz2    Ryd( 3d)     0.00078       2.00649

    83    H    4  S      Val( 1S)     0.77068       0.05174
    84    H    4  S      Ryd( 2S)     0.00043       1.07537
    85    H    4  S      Ryd( 3S)     0.00009       1.68874
    86    H    4  px     Ryd( 2p)     0.00006       1.75117
    87    H    4  py     Ryd( 2p)     0.00018       2.02030
    88    H    4  pz     Ryd( 2p)     0.00025       2.33905

    89    H    5  S      Val( 1S)     0.77457       0.04524
    90    H    5  S      Ryd( 2S)     0.00061       0.75924
    91    H    5  S      Ryd( 3S)     0.00011       2.02118
    92    H    5  px     Ryd( 2p)     0.00021       2.35223
    93    H    5  py     Ryd( 2p)     0.00018       2.06373
    94    H    5  pz     Ryd( 2p)     0.00010       1.68693

    95    H    6  S      Val( 1S)     0.76981       0.05248
    96    H    6  S      Ryd( 2S)     0.00043       0.97593
    97    H    6  S      Ryd( 3S)     0.00009       1.77945
    98    H    6  px     Ryd( 2p)     0.00023       2.39433
    99    H    6  py     Ryd( 2p)     0.00014       2.02306
   100    H    6  pz     Ryd( 2p)     0.00011       1.69596

   101    C    7  S      Cor( 1S)     1.99925     -10.01678
   102    C    7  S      Val( 2S)     1.12857      -0.30302
   103    C    7  S      Ryd( 4S)     0.00395       1.01975
   104    C    7  S      Ryd( 3S)     0.00073       0.55048
   105    C    7  S      Ryd( 5S)     0.00000      23.44472
   106    C    7  px     Val( 2p)     1.22520      -0.14178
   107    C    7  px     Ryd( 4p)     0.00447       0.71746
   108    C    7  px     Ryd( 3p)     0.00056       0.46266
   109    C    7  px     Ryd( 5p)     0.00010       2.97996
   110    C    7  py     Val( 2p)     1.21382      -0.11832
   111    C    7  py     Ryd( 4p)     0.00476       0.57951
   112    C    7  py     Ryd( 3p)     0.00031       0.33953
   113    C    7  py     Ryd( 5p)     0.00006       3.03862
   114    C    7  pz     Val( 2p)     1.23540      -0.09310
   115    C    7  pz     Ryd( 4p)     0.00138       0.69080
   116    C    7  pz     Ryd( 3p)     0.00044       0.31296
   117    C    7  pz     Ryd( 5p)     0.00008       3.12787
   118    C    7  dxy    Ryd( 3d)     0.00097       2.02195
   119    C    7  dxz    Ryd( 3d)     0.00011       1.75833
   120    C    7  dyz    Ryd( 3d)     0.00126       2.28723
   121    C    7  dx2y2  Ryd( 3d)     0.00049       1.80971
   122    C    7  dz2    Ryd( 3d)     0.00084       2.04496

   123    H    8  S      Val( 1S)     0.77914       0.05622
   124    H    8  S      Ryd( 2S)     0.00110       0.94486
   125    H    8  S      Ryd( 3S)     0.00013       1.93473
   126    H    8  px     Ryd( 2p)     0.00015       1.76468
   127    H    8  py     Ryd( 2p)     0.00016       2.09793
   128    H    8  pz     Ryd( 2p)     0.00024       2.42247

   129    H    9  S      Val( 1S)     0.77914       0.05622
   130    H    9  S      Ryd( 2S)     0.00110       0.94486
   131    H    9  S      Ryd( 3S)     0.00013       1.93473
   132    H    9  px     Ryd( 2p)     0.00015       1.76468
   133    H    9  py     Ryd( 2p)     0.00016       2.09793
   134    H    9  pz     Ryd( 2p)     0.00024       2.42247

   135    C   10  S      Cor( 1S)     1.99931     -10.01157
   136    C   10  S      Val( 2S)     1.19197      -0.33232
   137    C   10  S      Ryd( 4S)     0.00346       0.96125
   138    C   10  S      Ryd( 3S)     0.00012       0.40278
   139    C   10  S      Ryd( 5S)     0.00000      23.46786
   140    C   10  px     Val( 2p)     1.24185      -0.10816
   141    C   10  px     Ryd( 4p)     0.00109       0.64789
   142    C   10  px     Ryd( 3p)     0.00019       0.35282
   143    C   10  px     Ryd( 5p)     0.00002       2.94872
   144    C   10  py     Val( 2p)     1.28016      -0.12796
   145    C   10  py     Ryd( 4p)     0.00196       0.65007
   146    C   10  py     Ryd( 3p)     0.00016       0.33946
   147    C   10  py     Ryd( 5p)     0.00004       2.86578
   148    C   10  pz     Val( 2p)     1.31947      -0.14839
   149    C   10  pz     Ryd( 4p)     0.00323       0.65519
   150    C   10  pz     Ryd( 3p)     0.00026       0.32351
   151    C   10  pz     Ryd( 5p)     0.00004       2.79770
   152    C   10  dxy    Ryd( 3d)     0.00098       2.25169
   153    C   10  dxz    Ryd( 3d)     0.00003       1.69394
   154    C   10  dyz    Ryd( 3d)     0.00108       2.00119
   155    C   10  dx2y2  Ryd( 3d)     0.00032       1.81429
   156    C   10  dz2    Ryd( 3d)     0.00078       2.00649

   157    H   11  S      Val( 1S)     0.76981       0.05248
   158    H   11  S      Ryd( 2S)     0.00043       0.97593
   159    H   11  S      Ryd( 3S)     0.00009       1.77945
   160    H   11  px     Ryd( 2p)     0.00023       2.39433
   161    H   11  py     Ryd( 2p)     0.00014       2.02306
   162    H   11  pz     Ryd( 2p)     0.00011       1.69596

   163    H   12  S      Val( 1S)     0.77457       0.04524
   164    H   12  S      Ryd( 2S)     0.00061       0.75923
   165    H   12  S      Ryd( 3S)     0.00011       2.02119
   166    H   12  px     Ryd( 2p)     0.00021       2.35223
   167    H   12  py     Ryd( 2p)     0.00018       2.06373
   168    H   12  pz     Ryd( 2p)     0.00010       1.68693

   169    H   13  S      Val( 1S)     0.77068       0.05174
   170    H   13  S      Ryd( 2S)     0.00043       1.07537
   171    H   13  S      Ryd( 3S)     0.00009       1.68874
   172    H   13  px     Ryd( 2p)     0.00006       1.75117
   173    H   13  py     Ryd( 2p)     0.00018       2.02030
   174    H   13  pz     Ryd( 2p)     0.00025       2.33905

   175    C   14  S      Cor( 1S)     1.99929     -10.02646
   176    C   14  S      Val( 2S)     1.01619      -0.22363
   177    C   14  S      Ryd( 3S)     0.00245       0.79625
   178    C   14  S      Ryd( 4S)     0.00053       1.01780
   179    C   14  S      Ryd( 5S)     0.00000      23.19599
   180    C   14  px     Val( 2p)     1.03371      -0.08485
   181    C   14  px     Ryd( 4p)     0.00219       0.69018
   182    C   14  px     Ryd( 3p)     0.00071       0.68807
   183    C   14  px     Ryd( 5p)     0.00013       3.06262
   184    C   14  py     Val( 2p)     1.12269      -0.08976
   185    C   14  py     Ryd( 4p)     0.00164       0.54334
   186    C   14  py     Ryd( 3p)     0.00034       0.39426
   187    C   14  py     Ryd( 5p)     0.00010       3.06716
   188    C   14  pz     Val( 2p)     1.19893      -0.07886
   189    C   14  pz     Ryd( 4p)     0.00264       0.61668
   190    C   14  pz     Ryd( 3p)     0.00029       0.31844
   191    C   14  pz     Ryd( 5p)     0.00003       3.15575
   192    C   14  dxy    Ryd( 3d)     0.00070       2.25726
   193    C   14  dxz    Ryd( 3d)     0.00018       1.82618
   194    C   14  dyz    Ryd( 3d)     0.00132       2.30092
   195    C   14  dx2y2  Ryd( 3d)     0.00057       1.92368
   196    C   14  dz2    Ryd( 3d)     0.00066       2.16944

   197    H   15  S      Val( 1S)     0.80945       0.04245
   198    H   15  S      Ryd( 2S)     0.00127       0.88261
   199    H   15  S      Ryd( 3S)     0.00012       2.04102
   200    H   15  px     Ryd( 2p)     0.00017       1.82558
   201    H   15  py     Ryd( 2p)     0.00018       2.10948
   202    H   15  pz     Ryd( 2p)     0.00025       2.45859

   203    H   16  S      Val( 1S)     0.80945       0.04245
   204    H   16  S      Ryd( 2S)     0.00127       0.88261
   205    H   16  S      Ryd( 3S)     0.00012       2.04102
   206    H   16  px     Ryd( 2p)     0.00017       1.82558
   207    H   16  py     Ryd( 2p)     0.00018       2.10948
   208    H   16  pz     Ryd( 2p)     0.00025       2.45859

   209    C   17  S      Cor( 1S)     1.99931     -10.02313
   210    C   17  S      Val( 2S)     1.02331      -0.22094
   211    C   17  S      Ryd( 3S)     0.00237       0.80060
   212    C   17  S      Ryd( 4S)     0.00071       0.80995
   213    C   17  S      Ryd( 5S)     0.00000      23.32835
   214    C   17  px     Val( 2p)     1.02048      -0.07391
   215    C   17  px     Ryd( 4p)     0.00225       0.61503
   216    C   17  px     Ryd( 3p)     0.00063       0.33110
   217    C   17  px     Ryd( 5p)     0.00014       3.09005
   218    C   17  py     Val( 2p)     1.11491      -0.08167
   219    C   17  py     Ryd( 4p)     0.00130       0.53042
   220    C   17  py     Ryd( 3p)     0.00021       0.25588
   221    C   17  py     Ryd( 5p)     0.00010       3.10966
   222    C   17  pz     Val( 2p)     1.19705      -0.07318
   223    C   17  pz     Ryd( 4p)     0.00200       0.61445
   224    C   17  pz     Ryd( 3p)     0.00026       0.21448
   225    C   17  pz     Ryd( 5p)     0.00003       3.18386
   226    C   17  dxy    Ryd( 3d)     0.00071       2.27427
   227    C   17  dxz    Ryd( 3d)     0.00018       1.82856
   228    C   17  dyz    Ryd( 3d)     0.00121       2.30642
   229    C   17  dx2y2  Ryd( 3d)     0.00049       1.94905
   230    C   17  dz2    Ryd( 3d)     0.00067       2.17966

   231    H   18  S      Val( 1S)     0.81085       0.04512
   232    H   18  S      Ryd( 2S)     0.00141       0.74598
   233    H   18  S      Ryd( 3S)     0.00013       2.11172
   234    H   18  px     Ryd( 2p)     0.00016       1.79038
   235    H   18  py     Ryd( 2p)     0.00018       2.11599
   236    H   18  pz     Ryd( 2p)     0.00026       2.43794

   237    H   19  S      Val( 1S)     0.81085       0.04512
   238    H   19  S      Ryd( 2S)     0.00141       0.74598
   239    H   19  S      Ryd( 3S)     0.00013       2.11172
   240    H   19  px     Ryd( 2p)     0.00016       1.79038
   241    H   19  py     Ryd( 2p)     0.00018       2.11599
   242    H   19  pz     Ryd( 2p)     0.00026       2.43794

   243    C   20  S      Cor( 1S)     1.99936     -10.00862
   244    C   20  S      Val( 2S)     1.07525      -0.23271
   245    C   20  S      Ryd( 3S)     0.00070       0.51157
   246    C   20  S      Ryd( 4S)     0.00034       0.91521
   247    C   20  S      Ryd( 5S)     0.00000      23.36181
   248    C   20  px     Val( 2p)     1.12150      -0.08265
   249    C   20  px     Ryd( 4p)     0.00202       0.57626
   250    C   20  px     Ryd( 3p)     0.00045       0.16910
   251    C   20  px     Ryd( 5p)     0.00006       3.11943
   252    C   20  py     Val( 2p)     1.15699      -0.08118
   253    C   20  py     Ryd( 4p)     0.00115       0.52135
   254    C   20  py     Ryd( 3p)     0.00012       0.18569
   255    C   20  py     Ryd( 5p)     0.00006       3.13744
   256    C   20  pz     Val( 2p)     1.20408      -0.08299
   257    C   20  pz     Ryd( 4p)     0.00064       0.50544
   258    C   20  pz     Ryd( 3p)     0.00008       0.19298
   259    C   20  pz     Ryd( 5p)     0.00001       3.16412
   260    C   20  dxy    Ryd( 3d)     0.00078       2.29121
   261    C   20  dxz    Ryd( 3d)     0.00009       1.83864
   262    C   20  dyz    Ryd( 3d)     0.00108       2.28734
   263    C   20  dx2y2  Ryd( 3d)     0.00046       1.92676
   264    C   20  dz2    Ryd( 3d)     0.00063       2.16330

   265    H   21  S      Val( 1S)     0.80822       0.04288
   266    H   21  S      Ryd( 2S)     0.00106       0.72603
   267    H   21  S      Ryd( 3S)     0.00011       2.04521
   268    H   21  px     Ryd( 2p)     0.00013       1.75661
   269    H   21  py     Ryd( 2p)     0.00016       2.07262
   270    H   21  pz     Ryd( 2p)     0.00025       2.42119

   271    H   22  S      Val( 1S)     0.80196       0.04795
   272    H   22  S      Ryd( 2S)     0.00066       0.64260
   273    H   22  S      Ryd( 3S)     0.00011       2.08532
   274    H   22  px     Ryd( 2p)     0.00025       2.42000
   275    H   22  py     Ryd( 2p)     0.00021       2.03107
   276    H   22  pz     Ryd( 2p)     0.00009       1.80127

   277    H   23  S      Val( 1S)     0.80822       0.04288
   278    H   23  S      Ryd( 2S)     0.00106       0.72603
   279    H   23  S      Ryd( 3S)     0.00011       2.04521
   280    H   23  px     Ryd( 2p)     0.00013       1.75661
   281    H   23  py     Ryd( 2p)     0.00016       2.07263
   282    H   23  pz     Ryd( 2p)     0.00025       2.42118

 WARNING:  Population inversion found on atom Si    1
           Population inversion found on atom Cl    2
           Population inversion found on atom  C    3
           Population inversion found on atom  C    7
           Population inversion found on atom  C   10
           Population inversion found on atom  C   14
           Population inversion found on atom  C   17
           Population inversion found on atom  C   20


 Summary of Natural Population Analysis:                  
                                                          
                                       Natural Population 
                Natural  -----------------------------------------------
    Atom  No    Charge         Core      Valence    Rydberg      Total
 -----------------------------------------------------------------------
     Si    1    1.50270      9.99851     2.45241    0.04638    12.49730
     Cl    2   -0.39707      9.99974     7.38777    0.00956    17.39707
      C    3   -1.04652      1.99931     5.03345    0.01376     7.04652
      H    4    0.22831      0.00000     0.77068    0.00101     0.77169
      H    5    0.22422      0.00000     0.77457    0.00121     0.77578
      H    6    0.22919      0.00000     0.76981    0.00100     0.77081
      C    7   -0.82275      1.99925     4.80299    0.02051     6.82275
      H    8    0.21909      0.00000     0.77914    0.00177     0.78091
      H    9    0.21909      0.00000     0.77914    0.00177     0.78091
      C   10   -1.04652      1.99931     5.03345    0.01376     7.04652
      H   11    0.22919      0.00000     0.76981    0.00100     0.77081
      H   12    0.22422      0.00000     0.77457    0.00121     0.77578
      H   13    0.22831      0.00000     0.77068    0.00101     0.77169
      C   14   -0.38530      1.99929     4.37152    0.01449     6.38530
      H   15    0.18857      0.00000     0.80945    0.00198     0.81143
      H   16    0.18857      0.00000     0.80945    0.00198     0.81143
      C   17   -0.36831      1.99931     4.35575    0.01325     6.36831
      H   18    0.18702      0.00000     0.81085    0.00214     0.81298
      H   19    0.18702      0.00000     0.81085    0.00214     0.81298
      C   20   -0.56586      1.99936     4.55782    0.00867     6.56586
      H   21    0.19006      0.00000     0.80822    0.00172     0.80994
      H   22    0.19673      0.00000     0.80196    0.00131     0.80327
      H   23    0.19006      0.00000     0.80822    0.00172     0.80994
 =======================================================================
   * Total *    0.00000     31.99408    49.84257    0.16335    82.00000

                                 Natural Population      
 --------------------------------------------------------
   Core                      31.99408 ( 99.9815% of  32)
   Valence                   49.84257 ( 99.6851% of  50)
   Natural Minimal Basis     81.83665 ( 99.8008% of  82)
[...]
 736,-0.00003536,-0.00012291,0.00016418,0.44723423,-0.00547318,-0.00035
 252,-0.00082707,0.00153155,0.00116118,-0.00091140,0.00103961,-0.000233
 16,-0.00013656,-0.00005545,-0.00004273,-0.00002745,-0.00025806,0.00006
 221,-0.00016026,0.00016624,0.00025412,0.00010468,-0.01156126,-0.096686
 96,0.03303135,0.00618889,0.00686025,-0.01099436,-0.01388792,-0.0153937
 9,0.02706432,0.00048191,-0.00013539,-0.00014742,-0.00000493,-0.0005154
 1,0.00025344,0.00049248,-0.00039155,0.00053380,0.00002111,0.00012279,-
 0.00011614,-0.02014011,0.55621566,0.00947697,-0.00082704,0.00060174,-0
 .00265187,-0.00091137,0.00221292,-0.00115623,-0.00009101,0.00002847,0.
 00000763,-0.00002064,0.00020563,-0.00041968,0.00027199,-0.00060708,-0.
 00009023,-0.00019057,-0.00072205,0.02001861,0.03303146,-0.13480524,0.0
 1246293,0.01422368,-0.02466608,0.00086802,0.00184613,-0.00241193,-0.00
 147832,-0.00019296,-0.00006929,-0.00018908,0.00054870,0.00004748,0.000
 01378,0.00010155,-0.00015332,0.00005184,-0.00012295,0.00004012,0.03487
 412,0.03829092,0.51202789,0.00031554,0.00058031,0.00168436,-0.00000120
 ,-0.00001341,-0.00025573,0.00007652,-0.00009503,-0.00010799,0.00002485
 ,-0.00000016,-0.00001848,-0.00048878,-0.00022526,-0.00023556,0.0000509
 1,0.00011373,-0.00001343,0.00356859,0.00685293,0.01224868,-0.00072120,
 -0.00168814,0.00259004,0.00026016,-0.00003907,-0.00076048,-0.00019515,
 -0.00010528,-0.00008516,-0.00003691,0.00003634,-0.00002566,0.00002670,
 0.00007176,0.00000754,0.00008452,-0.00007546,-0.00005872,-0.06977393,-
 0.03307102,-0.06343586,0.08173742,-0.00039009,0.00035007,-0.00026922,0
 .00013333,0.00000094,-0.00010551,0.00001093,0.00007756,-0.00015686,-0.
 00006711,-0.00015312,0.00002464,-0.00008880,0.00000789,0.00014387,0.00
 002370,-0.00007309,0.00010469,0.00473147,0.00717141,0.01378572,-0.0012
 2937,-0.00053466,0.00339567,0.00052961,0.00073958,-0.00043348,0.000193
 01,0.00009271,0.00002865,0.00004284,0.00002053,-0.00000096,-0.00006460
 ,-0.00007776,-0.00009072,-0.00006668,0.00000485,0.00010766,-0.03300261
 ,-0.09983682,-0.09347389,0.03896233,0.10441287,-0.00139713,-0.00081391
 ,-0.00263494,0.00031546,0.00017077,0.00026191,-0.00021868,0.00011814,0
 .00001983,0.00008010,0.00009268,-0.00004750,0.00011581,-0.00020496,0.0
 0053002,-0.00007308,-0.00005032,0.00030358,-0.00487945,-0.01051011,-0.
 02187043,0.00242810,0.00304280,-0.00328259,-0.00052342,0.00026706,0.00
 083943,0.00046882,0.00012513,0.00019206,0.00006250,-0.00010736,0.00000
 545,0.00000952,-0.00008991,-0.00002616,-0.00010821,0.00014014,0.000063
 73,-0.06410108,-0.09306880,-0.22062443,0.06813829,0.10114466,0.2447215
 7,0.00031554,-0.00174896,0.00033916,-0.00000120,0.00022821,-0.00011619
 ,-0.00019515,0.00012638,0.00004862,0.00008452,0.00008857,0.00003601,0.
 00002670,-0.00004239,-0.00005839,-0.00003691,0.00000406,-0.00004430,0.
 00356847,-0.01403420,0.00018577,0.00026017,0.00067823,-0.00034622,-0.0
 0072120,-0.00139969,0.00275662,0.00007653,0.00014103,0.00002834,0.0000
 5091,-0.00004521,-0.00010522,-0.00048878,0.00031661,0.00007739,0.00002
 485,0.00001609,-0.00000910,-0.06977284,0.07147186,-0.00305839,0.002597
 48,-0.00977758,0.00085798,0.08173620,0.00140508,-0.00235824,0.00074877
 ,-0.00033987,0.00022498,0.00004150,-0.00050253,0.00023382,0.00004372,0
 .00012705,0.00015629,0.00005276,0.00002404,-0.00011724,-0.00006714,-0.
 00007555,-0.00003767,-0.00007377,0.00186161,-0.01319863,0.00124335,0.0
 0018868,0.00074245,0.00026540,-0.00148870,0.00019087,0.00262418,0.0001
 8394,0.00001748,0.00015280,0.00005145,0.00023303,-0.00022696,-0.000055
 92,0.00037316,-0.00041572,-0.00003584,-0.00002309,0.00001765,0.0720138
 6,-0.27120702,0.00580999,0.00414325,-0.01437357,-0.00040193,-0.0784891
 1,0.29724488,-0.00036035,0.00129347,0.00007337,0.00004217,-0.00023478,
 0.00003787,0.00006712,-0.00005277,0.00005096,0.00000368,0.00002027,-0.
 00008771,0.00006071,-0.00006794,0.00001332,-0.00000587,0.00003263,0.00
 006365,-0.00653662,0.02553930,-0.00150026,-0.00072032,-0.00043513,0.00
 083656,0.00227833,0.00297705,-0.00400811,-0.00011876,-0.00012219,0.000
 07990,-0.00005705,-0.00007195,-0.00000254,0.00013480,-0.00006689,0.000
 16474,0.00009816,-0.00005038,-0.00017753,-0.00345012,0.00540490,-0.049
 25533,0.00889751,-0.02631148,0.00103988,0.00030565,-0.01011738,0.05189
 079,-0.00094747,-0.00044038,0.00076253,0.00033890,0.00024137,-0.000417
 94,0.00007534,0.00002148,0.00012171,-0.00000740,0.00000904,-0.00002210
 ,-0.00004620,-0.00000537,-0.00010596,0.00000253,0.00001480,-0.00003766
 ,-0.01631698,-0.00316694,0.00548375,0.00131609,0.00055933,-0.00160970,
 0.00131608,0.00111471,-0.00128895,0.00007534,-0.00011615,0.00004222,0.
 00000253,0.00002522,-0.00003164,-0.00004620,0.00009447,-0.00004831,-0.
 00000740,0.00001462,-0.00001887,-0.17429721,0.00546561,-0.00946293,-0.
 01416269,0.00040587,-0.00112857,-0.01416243,0.00077478,-0.00091550,0.4
 5789166,0.00087429,-0.00178643,0.00142624,-0.00092207,-0.00028585,0.00
 067500,-0.00043557,0.00024674,-0.00018975,0.00002555,0.00001502,0.0000
 4983,0.00002543,-0.00007898,0.00003577,-0.00005523,-0.00008930,-0.0000
 3752,-0.01794121,-0.00137961,0.00221728,0.00105228,0.00036477,-0.00096
 104,-0.00142696,0.00049558,-0.00000677,0.00004868,0.00014817,-0.000015
 16,0.00001966,0.00014463,-0.00017165,-0.00023068,0.00029760,-0.0002116
 9,0.00000450,-0.00005044,0.00000745,0.00522031,-0.07748554,-0.00115310
 ,-0.01666362,0.00022154,-0.00100132,0.03327548,-0.00173519,0.00190327,
 -0.01787632,0.56410414,-0.00151384,0.00142625,-0.00343229,0.00159658,0
 .00067499,-0.00106480,0.00019512,-0.00007203,0.00026639,-0.00001994,-0
 .00003032,-0.00008349,0.00025166,0.00000559,0.00039910,0.00000917,-0.0
 0003668,0.00026532,0.03106568,0.00221715,-0.00393848,0.00104029,0.0000
 6869,0.00105400,-0.00039154,-0.00103652,0.00092321,0.00047479,-0.00013
 288,0.00036497,0.00005242,-0.00017249,0.00003139,0.00010375,-0.0001815
 1,0.00002253,-0.00003210,0.00008760,-0.00001803,-0.00903819,-0.0011531
 0,-0.07615477,-0.02880236,0.00077454,-0.00225543,0.00003887,0.00012755
 ,-0.00029896,0.03095429,0.03272937,0.52633441,0.00011056,0.00017885,-0
 .00060183,0.00001248,-0.00000249,0.00009672,-0.00001036,0.00002177,-0.
 00000455,0.00000730,0.00000365,-0.00000688,0.00010623,-0.00000704,0.00
 016616,-0.00001457,-0.00002890,0.00010061,0.00194557,0.00042956,-0.001
 19676,-0.00002229,0.00003716,0.00112634,-0.00005274,-0.00003187,0.0001
 0031,0.00005161,0.00005173,0.00002886,0.00000771,-0.00000678,0.0000202
 3,0.00001342,-0.00005839,-0.00000682,-0.00003712,0.00002639,0.00003870
 ,-0.01460123,-0.01646085,-0.02828621,-0.00675774,0.00019788,-0.0000879
 5,0.00149657,0.00037904,0.00016173,-0.07077867,-0.03390673,-0.06508214
 ,0.08142628,0.00001023,0.00009989,0.00001725,-0.00003090,-0.00003846,0
 .00008359,0.00008302,-0.00001269,-0.00001045,0.00000587,0.00000862,-0.
 00000731,0.00000931,-0.00000571,0.00001582,0.00000489,0.00002162,0.000
 02905,0.00014444,-0.00008646,-0.00009528,-0.00037448,0.00009682,0.0003
 5558,0.00000766,-0.00006290,-0.00014942,-0.00000150,-0.00000752,0.0000
 0010,-0.00000741,-0.00001186,0.00000727,0.00002277,-0.00001973,0.00001
 930,0.00000314,0.00000809,-0.00000741,0.00043000,0.00003602,0.00078693
 ,0.00020503,0.00129252,0.00061198,-0.00034300,0.00066849,0.00058138,-0
 .03427836,-0.10018593,-0.09461258,0.03943491,0.10496156,0.00009056,0.0
 0005940,0.00007064,-0.00007886,-0.00003776,0.00009830,0.00010273,0.000
 02289,-0.00004559,0.00000038,0.00000823,-0.00000141,0.00000571,-0.0000
 1821,0.00000832,0.00000870,0.00002545,0.00002895,0.00060220,0.00040755
 ,0.00123187,-0.00022632,-0.00030806,0.00047224,-0.00005530,0.00001445,
 0.00000848,-0.00003971,0.00003130,-0.00001225,-0.00000185,0.00001495,0
 .00000971,0.00000137,-0.00002353,-0.00000345,-0.00001260,0.00000203,0.
 00002298,-0.00073390,-0.00044228,-0.00194001,0.00006800,0.00062074,0.0
 0096987,-0.00032781,0.00035855,0.00010661,-0.06551663,-0.09393872,-0.2
 2167205,0.06996410,0.10163867,0.24469596,0.00011056,0.00043190,-0.0004
 5569,0.00001248,-0.00008253,0.00005050,0.00005161,-0.00005085,-0.00003
 039,-0.00003712,-0.00004670,-0.00000351,0.00001342,0.00003509,0.000047
 17,0.00000771,-0.00001413,0.00001598,0.00194557,0.00082189,-0.00097019
 ,-0.00005274,-0.00007096,0.00007774,-0.00002229,-0.00099416,0.00053072
 ,-0.00001036,-0.00000694,-0.00002112,-0.00001457,-0.00007270,0.0000753
 1,0.00010623,-0.00014040,0.00008914,0.00000730,0.00000414,-0.00000660,
 -0.01460097,0.03272708,0.00012119,0.00149657,-0.00032952,-0.00024748,-
 0.00675775,-0.00002265,-0.00021531,-0.07077755,0.07331545,-0.00315730,
 0.00296233,-0.00985442,0.00071555,0.08142503,-0.00008355,0.00011112,0.
 00005292,0.00008374,0.00008398,-0.00010841,0.00003514,0.00000252,0.000
 02551,0.00000934,0.00001694,-0.00000307,-0.00001257,-0.00000935,-0.000
 02952,0.00000530,0.00001395,0.00000006,-0.00059379,0.00103777,-0.00024
 111,0.00004407,-0.00006777,0.00001726,0.00038319,0.00039905,-0.0004824
 5,-0.00013048,-0.00003198,0.00003402,-0.00000998,0.00005071,0.00000866
 ,-0.00000960,0.00000378,-0.00002369,-0.00000327,0.00000150,0.00001234,
 0.00042088,-0.00129753,0.00032702,0.00045535,0.00065383,0.00036701,-0.
 00016130,0.00158408,0.00045252,0.07387752,-0.27294967,0.00574411,0.004
 30501,-0.01457349,-0.00039735,-0.08030672,0.29779042,0.00003640,0.0000
 1077,0.00005940,-0.00001265,0.00001294,-0.00002414,-0.00001854,-0.0000
 0569,-0.00002230,-0.00000901,-0.00001251,0.00001413,-0.00001904,0.0000
 1331,-0.00001383,0.00000549,-0.00000762,-0.00001609,0.00017584,-0.0007
 4396,0.00010765,-0.00003427,-0.00014661,0.00001336,0.00021125,0.000181
 21,0.00017002,-0.00002057,0.00000069,-0.00002630,0.00000011,0.00001227
 ,-0.00000014,-0.00000521,0.00001034,-0.00000117,-0.00000490,-0.0000031
 9,0.00000572,-0.00073916,0.00155609,-0.00060672,0.00013326,0.00058984,
 0.00012127,-0.00014357,0.00044376,0.00067831,-0.00305255,0.00507026,-0
 .04890942,0.00889289,-0.02606925,0.00069754,0.00080881,-0.00962153,0.0
 5186834,0.00140289,-0.00051319,0.00088859,-0.00070125,-0.00029703,0.00
 051432,-0.00017759,0.00004546,-0.00013950,0.00001141,0.00000587,0.0000
 4172,-0.00002422,-0.00000147,-0.00003714,-0.00002320,-0.00002284,-0.00
 005584,-0.00697379,-0.00007402,0.00012823,-0.00001238,0.00021023,0.000
 09420,-0.00001239,-0.00018666,-0.00013501,-0.00017759,0.00009811,-0.00
 010909,-0.00002320,0.00005978,-0.00000813,-0.00002422,0.00003290,-0.00
 001729,0.00001141,-0.00003907,0.00001577,-0.01730640,-0.01662669,0.028
 78956,0.00159997,0.00001560,0.00061952,0.00159997,-0.00054441,0.000296
 09,-0.09430504,-0.01844408,0.03193638,0.00396575,0.00477673,-0.0069351
 4,0.00396563,0.00361953,-0.00760319,0.54873799,-0.00022678,0.00048150,
 0.00016306,0.00016473,0.00003815,-0.00014349,0.00016177,-0.00006826,0.
 00001441,-0.00001621,-0.00001706,-0.00000982,-0.00003068,0.00001278,-0
 .00001368,0.00002935,0.00002883,0.00001981,0.00085077,0.00010609,-0.00
 033941,-0.00008382,0.00002681,0.00029215,-0.00003302,0.00039534,-0.000
 06153,-0.00003436,-0.00008862,-0.00002468,-0.00000526,0.00000356,0.000
 00749,0.00002051,0.00001091,0.00001984,0.00000637,0.00000881,-0.000017
 41,-0.00252119,-0.00051974,-0.00013658,0.00006043,-0.00007138,0.000363
 20,0.00119311,0.00067250,-0.00083054,-0.01932779,-0.10214582,0.0399987
 5,0.00652520,0.00696757,-0.01119782,-0.01452633,-0.01423703,0.02695926
 ,-0.01807028,0.53651101,0.00039267,0.00016306,0.00029333,-0.00028523,-
 0.00014348,0.00020373,-0.00005367,-0.00003643,-0.00008269,0.00000199,-
 0.00000248,0.00002452,-0.00000597,0.00001877,0.00000736,-0.00001087,-0
 .00000709,-0.00001219,-0.00147306,-0.00033940,0.00049776,0.00008648,0.
 00015111,0.00026227,0.00011582,0.00007951,-0.00010625,-0.00016694,0.00
 002616,-0.00006234,-0.00003085,0.00003439,0.00001307,0.00002359,-0.000
 01261,0.00000922,0.00001503,-0.00002475,-0.00000135,0.00436563,-0.0001
 3645,-0.00036241,-0.00141236,-0.00040131,0.00094216,-0.00075821,-0.000
 06602,0.00019827,0.03346654,0.03999874,-0.14830436,0.01300595,0.014724
 14,-0.02333131,0.00084809,0.00103715,-0.00212660,0.03128909,0.03483926
 ,0.49630651,-0.00015672,-0.00004911,0.00006685,0.00005073,0.00003532,-
 0.00006089,0.00002575,0.00000219,0.00001022,-0.00000396,0.,-0.00000172
 ,-0.00002049,-0.00000267,-0.00002162,0.00000738,0.00000579,-0.00000770
 ,0.00002178,-0.00008477,0.00000231,-0.00008111,-0.00003866,-0.00014506
 ,0.00000964,0.00002927,-0.00001323,0.00002863,-0.00001253,-0.00000058,
 0.00000593,-0.00000411,-0.00000389,-0.00000949,0.00001495,-0.00000043,
 -0.00000028,0.00000379,-0.00000479,0.00132727,0.00092761,0.00086850,-0
 .00002512,-0.00031591,-0.00024130,-0.00002398,0.00002621,-0.00001753,0
 .00320265,0.00683937,0.01196227,-0.00058916,-0.00120966,0.00253554,0.0
 0028879,0.00022470,-0.00081484,-0.06788755,-0.03253675,-0.06215126,0.0
 7002399,-0.00006045,-0.00001247,-0.00010774,0.00002579,0.00000706,-0.0
 0000107,0.00000060,0.00001174,0.00000547,-0.00000492,-0.00000687,0.000
 00385,0.00000249,0.00000481,0.00000643,0.00000060,-0.00000508,-0.00000
 007,0.00022113,0.00003243,0.00007534,-0.00003405,-0.00007596,-0.000042
 27,-0.00000094,-0.00002769,0.00003267,0.00002523,0.00000742,0.00000880
 ,0.00000442,-0.00000245,0.00000040,-0.00000470,-0.00001100,-0.00000677
 ,-0.00000607,0.00000282,0.00001019,0.00062241,0.00038347,-0.00007426,0
 .00008232,0.00012181,-0.00030101,-0.00009988,-0.00006613,-0.00012099,0
 .00485327,0.00744671,0.01447234,-0.00169972,-0.00050477,0.00316169,0.0
 0068173,0.00086795,-0.00042195,-0.03244189,-0.09937462,-0.09801469,0.0
 3739623,0.10488797,-0.00018754,-0.00004478,-0.00005874,0.00004618,0.00
 002115,-0.00000214,0.00007543,0.00002304,0.00002335,0.00000348,0.00001
 009,-0.00001355,0.00001399,-0.00001596,0.00000937,0.00000519,0.0000135
 2,0.00002846,0.00033276,0.00035443,0.00032068,-0.00016496,-0.00004860,
 0.00030798,-0.00005161,-0.00001838,-0.00004383,0.00006715,0.00001315,0
 .00001218,0.00001218,-0.00001335,-0.00000090,-0.00000735,-0.00000495,-
 0.00000605,-0.00001428,0.00001363,0.00001202,-0.00150976,-0.00074943,0
 .00074543,0.00115749,0.00035888,0.00048337,0.00005878,0.00001165,0.000
 01359,-0.00739944,-0.01196545,-0.02383584,0.00269193,0.00336345,-0.003
 16107,-0.00042328,0.00031354,0.00095683,-0.06154181,-0.09739518,-0.229
 78155,0.06672361,0.10569897,0.25369709,0.00064703,0.00000912,-0.000015
 79,-0.00021384,-0.00011252,0.00019483,-0.00014891,-0.00000633,-0.00002
 786,0.00001527,0.00000753,0.00001313,0.00002557,0.00000793,0.00002292,
 -0.00002786,-0.00002146,-0.00002155,-0.00098947,0.00013693,-0.00023709
 ,-0.00000801,0.00002233,0.00006579,-0.00000801,-0.00006814,0.00001354,
 -0.00014891,0.00002730,-0.00000844,-0.00002786,0.00002939,0.00000781,0
 .00002557,-0.00002382,0.00000459,0.00001527,-0.00001514,0.00000004,0.0
 0067558,-0.00175861,0.00304507,0.00034747,0.00008360,-0.00005828,0.000
 34746,0.00000870,-0.00010154,-0.01156843,0.00098083,-0.00169823,0.0004
 6928,0.00036824,0.00043510,0.00046927,-0.00056090,-0.00010151,-0.30575
 970,0.00830814,-0.01438336,-0.00843557,0.00039030,-0.00082997,0.332734
 12,0.00027618,-0.00007480,0.00012298,-0.00013250,-0.00006374,0.0000984
 4,-0.00006089,0.00001208,-0.00002186,0.00000567,0.00000447,0.00000693,
 0.00000471,-0.00000419,-0.00000039,-0.00000919,-0.00000848,-0.00001113
 ,-0.00109616,0.00039232,0.00024124,-0.00001169,-0.00000082,0.00003282,
 0.00006809,0.00001340,-0.00010660,-0.00004557,0.00002585,-0.00001057,-
 0.00000603,0.00001668,-0.00000376,-0.00000929,0.00000318,-0.00000534,0
 .00000274,-0.00000890,0.00000350,-0.00026426,-0.00129600,0.00265638,0.
 00041365,0.00000595,0.00010160,-0.00035461,0.00035662,0.00008972,-0.01
 624421,-0.00037496,-0.00184878,0.00058570,0.00046062,-0.00030432,-0.00
 001611,0.00022222,-0.00071192,0.00888062,-0.04694144,0.00025005,-0.015
 41001,-0.00007230,-0.00027027,-0.00833730,0.04744585,-0.00047822,0.000
 12299,-0.00021672,0.00022944,0.00009844,-0.00017734,0.00008775,-0.0000
 0263,0.00004456,-0.00000644,-0.00000421,-0.00001492,0.00000802,-0.0000
 0109,0.00000649,0.00001227,0.00001076,0.00002527,0.00189804,0.00024123
 ,0.00011393,-0.00007186,-0.00009839,0.00005597,-0.00002579,0.00002462,
 0.00004175,0.00009660,-0.00002981,0.00003079,0.00001409,-0.00002565,0.
 00000010,-0.00000007,-0.00000465,-0.00000088,-0.00000813,0.00001465,-0
 .00000155,0.00045757,0.00265640,-0.00436146,0.00017073,0.00029205,0.00
 024623,-0.00027296,-0.00010073,-0.00010444,0.02812723,-0.00184893,0.00
 175844,-0.00031935,-0.00084948,0.00080858,-0.00066691,-0.00016675,0.00
 104699,-0.01537462,0.00025005,-0.04722982,-0.02777662,0.00204704,-0.00
 115223,0.01443361,-0.00237934,0.05019141,-0.00015672,-0.00003336,0.000
 07595,0.00005073,0.00003509,-0.00006102,0.00002863,0.00000676,0.000010
 56,-0.00000028,0.00000225,-0.00000567,-0.00000949,-0.00000710,-0.00001
 316,0.00000593,0.00000542,0.00000162,0.00002178,0.00004037,0.00007458,
 0.00000964,-0.00000317,-0.00003196,-0.00008111,0.00014497,-0.00003901,
 0.00002575,-0.00000994,0.00000321,0.00000738,0.00000378,-0.00000886,-0
 .00002049,0.00002006,-0.00000849,-0.00000396,0.00000148,-0.00000087,0.
 00132727,-0.00121586,-0.00036941,-0.00002398,0.00000208,-0.00003147,-0
 .00002512,0.00036688,0.00015303,0.00320253,-0.01377934,0.00005438,0.00
 028879,0.00059348,-0.00060185,-0.00058916,-0.00159161,0.00231495,-0.06
 788649,0.07009208,-0.00287914,0.00224090,-0.00995390,0.00094183,-0.008
 43533,0.03176048,-0.00053435,0.07002281,0.00019265,-0.00011321,0.00001
 334,-0.00005289,0.00000885,0.00002012,-0.00007077,0.00002049,0.0000056
 0,0.00001540,0.00002003,0.00000370,0.00000871,-0.00001236,-0.00000416,
 -0.00001276,-0.00000689,-0.00001079,-0.00039874,0.00043473,0.00012231,
 0.00004518,-0.00003361,-0.00001496,0.00015990,0.00017275,-0.00019210,-
 0.00006564,0.00003280,0.00001089,-0.00000479,0.00002590,-0.00000436,-0
 .00001336,0.00000411,-0.00001556,-0.00000056,-0.00000585,0.00000950,0.
 00099662,0.00029846,-0.00070038,-0.00000099,-0.00005365,0.00000445,-0.
 00104371,0.00041812,0.00018791,0.00398344,-0.01493717,0.00094996,0.000
 02592,0.00088769,0.00030215,-0.00148215,0.00032702,0.00288352,0.069516
 79,-0.28179988,0.00786236,0.00415876,-0.01361485,0.00033085,0.00052389
 ,-0.00011362,-0.00024657,-0.07648091,0.30804014,-0.00004137,-0.0000496
 2,0.00004200,0.00000074,-0.00000210,-0.00000393,0.00001171,0.00000126,
 -0.00000090,-0.00000187,0.00000026,-0.00000519,0.00000040,-0.00000599,
 -0.00000469,0.00000226,0.00000296,0.00000354,-0.00002523,-0.00015678,-
 0.00008161,-0.00002498,0.00003609,-0.00003791,-0.00005295,-0.00018578,
 0.00005927,0.00003718,-0.00000668,0.00000230,0.00000207,-0.00001795,-0
 .00000253,0.00000483,0.00000684,0.00001007,0.00000601,0.00000326,-0.00
 001457,-0.00129364,-0.00002520,0.00083044,0.00011589,-0.00012819,0.000
 00112,0.00050717,-0.00047198,0.00018706,-0.00790152,0.02738789,-0.0014
 5185,-0.00080203,-0.00043334,0.00093709,0.00281757,0.00268175,-0.00399
 285,-0.00265673,0.00724285,-0.04735733,0.00909215,-0.02643238,0.001445
 54,-0.00075281,0.00207060,-0.00111116,0.00095516,-0.01151778,0.0505460
 9\\0.00000417,-0.00000180,0.00000312,0.00000704,0.00000258,-0.00000447
 ,-0.00000818,-0.00000957,0.00000529,0.00000199,-0.00000341,0.00000181,
 0.00000652,0.00000837,-0.00000136,-0.00000339,0.00000110,0.00000322,-0
 .00001382,-0.00000130,0.00000228,0.00000496,0.00000301,0.00000368,0.00
 000497,-0.00000470,-0.00000077,-0.00000818,0.00000020,0.00001094,-0.00
 000339,-0.00000333,0.00000066,0.00000652,-0.00000301,-0.00000793,0.000
 00199,0.00000013,0.00000386,0.00000348,-0.00000233,0.00000403,0.000000
 66,-0.00000226,-0.00000626,0.00000066,0.00000655,-0.00000117,-0.000003
 41,0.00000393,-0.00000680,0.00000090,0.00000326,0.00000385,0.00000090,
 -0.00000497,-0.00000090,-0.00000488,-0.00000003,0.00000006,-0.00000285
 ,-0.00000152,-0.00000764,0.00000620,0.00000172,-0.00000298,-0.00000285
 ,0.00000737,-0.00000250\\\@


 SIGN SEEN IN A RESTAURANT-
 WE RESERVE THE RIGHT TO SERVE REFUSE TO ANYONE.
 Job cpu time:       0 days  0 hours 39 minutes  8.8 seconds.
 File lengths (MBytes):  RWF=    222 Int=      0 D2E=      0 Chk=      8 Scr=      1
 Normal termination of Gaussian 09 at Mon Jan  9 17:32:39 2023.
