	You are loading a legacy vmd module, please load an up to date module instead.


	 module load container_env vmd

	Please run vmd command with crun.vmd prepend to it:
	
	 crun.vmd vmd

	 
module: Command not found.
module: Command not found.
 Entering Gaussian System, Link 0=g09
 Initial command:
 /opt/gaussian/g09/l1.exe "/tmp/G09-12.com.o10577397.tmp/Gau-1345768.inp" -scrdir="/tmp/G09-12.com.o10577397.tmp/"
 Entering Link 1 = /opt/gaussian/g09/l1.exe PID=   1345769.
  
 Copyright (c) 1988,1990,1992,1993,1995,1998,2003,2009,2013,
            Gaussian, Inc.  All Rights Reserved.
  
 This is part of the Gaussian(R) 09 program.  It is based on
 the Gaussian(R) 03 system (copyright 2003, Gaussian, Inc.),
 the Gaussian(R) 98 system (copyright 1998, Gaussian, Inc.),
 the Gaussian(R) 94 system (copyright 1995, Gaussian, Inc.),
 the Gaussian 92(TM) system (copyright 1992, Gaussian, Inc.),
 the Gaussian 90(TM) system (copyright 1990, Gaussian, Inc.),
 the Gaussian 88(TM) system (copyright 1988, Gaussian, Inc.),
 the Gaussian 86(TM) system (copyright 1986, Carnegie Mellon
 University), and the Gaussian 82(TM) system (copyright 1983,
 Carnegie Mellon University). Gaussian is a federally registered
 trademark of Gaussian, Inc.
  
 This software contains proprietary and confidential information,
 including trade secrets, belonging to Gaussian, Inc.
  
 This software is provided under written license and may be
 used, copied, transmitted, or stored only in accord with that
 written license.
  
 The following legend is applicable only to US Government
 contracts under FAR:
  
                    RESTRICTED RIGHTS LEGEND
  
 Use, reproduction and disclosure by the US Government is
 subject to restrictions as set forth in subparagraphs (a)
 and (c) of the Commercial Computer Software - Restricted
 Rights clause in FAR 52.227-19.
  
 Gaussian, Inc.
 340 Quinnipiac St., Bldg. 40, Wallingford CT 06492
  
  
 ---------------------------------------------------------------
 Warning -- This program may not be used in any manner that
 competes with the business of Gaussian, Inc. or will provide
 assistance to any competitor of Gaussian, Inc.  The licensee
 of this program is prohibited from giving any competitor of
 Gaussian, Inc. access to this program.  By using this program,
 the user acknowledges that Gaussian, Inc. is engaged in the
 business of creating and licensing software in the field of
 computational chemistry and represents and warrants to the
 licensee that it is not a competitor of Gaussian, Inc. and that
 it will not use this program in any manner prohibited above.
 ---------------------------------------------------------------
  

 Cite this work as:
 Gaussian 09, Revision D.01,
 M. J. Frisch, G. W. Trucks, H. B. Schlegel, G. E. Scuseria, 
 M. A. Robb, J. R. Cheeseman, G. Scalmani, V. Barone, B. Mennucci, 
 G. A. Petersson, H. Nakatsuji, M. Caricato, X. Li, H. P. Hratchian, 
 A. F. Izmaylov, J. Bloino, G. Zheng, J. L. Sonnenberg, M. Hada, 
 M. Ehara, K. Toyota, R. Fukuda, J. Hasegawa, M. Ishida, T. Nakajima, 
 Y. Honda, O. Kitao, H. Nakai, T. Vreven, J. A. Montgomery, Jr., 
 J. E. Peralta, F. Ogliaro, M. Bearpark, J. J. Heyd, E. Brothers, 
 K. N. Kudin, V. N. Staroverov, T. Keith, R. Kobayashi, J. Normand, 
 K. Raghavachari, A. Rendell, J. C. Burant, S. S. Iyengar, J. Tomasi, 
 M. Cossi, N. Rega, J. M. Millam, M. Klene, J. E. Knox, J. B. Cross, 
 V. Bakken, C. Adamo, J. Jaramillo, R. Gomperts, R. E. Stratmann, 
 O. Yazyev, A. J. Austin, R. Cammi, C. Pomelli, J. W. Ochterski, 
 R. L. Martin, K. Morokuma, V. G. Zakrzewski, G. A. Voth, 
 P. Salvador, J. J. Dannenberg, S. Dapprich, A. D. Daniels, 
 O. Farkas, J. B. Foresman, J. V. Ortiz, J. Cioslowski, 
 and D. J. Fox, Gaussian, Inc., Wallingford CT, 2013.
 
 ******************************************
 Gaussian 09:  ES64L-G09RevD.01 24-Apr-2013
                23-Apr-2024 
 ******************************************
 %nprocshared=20
 Will use up to   20 processors via shared memory.
 %mem=4GB
 %chk=12.chk
 ----------------------------------------------------------------------
 # opt freq=noraman b3lyp/6-311+g(d,p) pop=(npa,hirshfeld,chelpg,mbs) g
 eom=connectivity
 ----------------------------------------------------------------------
 1/14=-1,18=20,19=15,26=3,38=1,57=2/1,3;
 2/9=110,12=2,17=6,18=5,40=1/2;
 3/5=4,6=6,7=111,11=2,16=1,25=1,30=1,71=1,74=-5/1,2,3;
 4//1;
 5/5=2,38=5/2;
 6/7=2,8=2,9=2,10=2,15=8,20=3,27=100,28=1,40=-1,79=1/1,2,7;
 7//1,2,3,16;
 1/14=-1,18=20,19=15,26=3/3(2);
 2/9=110/2;
 99//99;
 2/9=110/2;
 3/5=4,6=6,7=111,11=2,16=1,25=1,30=1,71=1,74=-5/1,2,3;
 4/5=5,16=3,69=1/1;
 5/5=2,38=5/2;
 7//1,2,3,16;
 1/14=-1,18=20,19=15,26=3/3(-5);
 2/9=110/2;
 6/7=2,8=2,9=2,10=2,15=8,19=2,20=3,27=100,28=1,40=-1,79=1/1,2,7;
 99/9=1/99;
 -------------------
 Title Card Required
 -------------------
 Symbolic Z-matrix:
 Charge =  0 Multiplicity = 1
 C                     0.02644   0.05784  -0.00194 
 C                     1.42783   0.05906  -0.00517 
 C                     2.12729   1.27067  -0.08693 
 C                     1.42535   2.48106  -0.16548 
 C                     0.02396   2.47984  -0.16225 
 C                    -0.6755    1.26823  -0.08048 
 H                     1.9594    3.40615  -0.22791 
 C                     2.19919  -1.27103   0.08115 
 O                     3.45759  -1.26993   0.07825 
 H                     1.66514  -2.19612   0.14358 
 H                    -0.50761  -0.86725   0.06049 
 H                    -1.7455    1.26729  -0.07802 
 H                    -0.51199   3.40399  -0.22222 
 Cl                    3.88729   1.27221  -0.09098 
 

 GradGradGradGradGradGradGradGradGradGradGradGradGradGradGradGradGradGrad
 Berny optimization.
 Initialization pass.
                           ----------------------------
                           !    Initial Parameters    !
                           ! (Angstroms and Degrees)  !
 --------------------------                            --------------------------
 ! Name  Definition              Value          Derivative Info.                !
 --------------------------------------------------------------------------------
 ! R1    R(1,2)                  1.4014         estimate D2E/DX2                !
 ! R2    R(1,6)                  1.4014         estimate D2E/DX2                !
 ! R3    R(1,11)                 1.07           estimate D2E/DX2                !
 ! R4    R(2,3)                  1.4014         estimate D2E/DX2                !
 ! R5    R(2,8)                  1.54           estimate D2E/DX2                !
 ! R6    R(3,4)                  1.4014         estimate D2E/DX2                !
 ! R7    R(3,14)                 1.76           estimate D2E/DX2                !
 ! R8    R(4,5)                  1.4014         estimate D2E/DX2                !
 ! R9    R(4,7)                  1.07           estimate D2E/DX2                !
 ! R10   R(5,6)                  1.4014         estimate D2E/DX2                !
 ! R11   R(5,13)                 1.07           estimate D2E/DX2                !
 ! R12   R(6,12)                 1.07           estimate D2E/DX2                !
 ! R13   R(8,9)                  1.2584         estimate D2E/DX2                !
 ! R14   R(8,10)                 1.07           estimate D2E/DX2                !
 ! A1    A(2,1,6)              120.0            estimate D2E/DX2                !
 ! A2    A(2,1,11)             120.0            estimate D2E/DX2                !
 ! A3    A(6,1,11)             120.0            estimate D2E/DX2                !
 ! A4    A(1,2,3)              120.0            estimate D2E/DX2                !
 ! A5    A(1,2,8)              120.0            estimate D2E/DX2                !
 ! A6    A(3,2,8)              120.0            estimate D2E/DX2                !
 ! A7    A(2,3,4)              120.0            estimate D2E/DX2                !
 ! A8    A(2,3,14)             120.0            estimate D2E/DX2                !
 ! A9    A(4,3,14)             120.0            estimate D2E/DX2                !
 ! A10   A(3,4,5)              120.0            estimate D2E/DX2                !
 ! A11   A(3,4,7)              120.0            estimate D2E/DX2                !
 ! A12   A(5,4,7)              120.0            estimate D2E/DX2                !
 ! A13   A(4,5,6)              120.0            estimate D2E/DX2                !
 ! A14   A(4,5,13)             120.0            estimate D2E/DX2                !
 ! A15   A(6,5,13)             120.0            estimate D2E/DX2                !
 ! A16   A(1,6,5)              120.0            estimate D2E/DX2                !
 ! A17   A(1,6,12)             120.0            estimate D2E/DX2                !
 ! A18   A(5,6,12)             120.0            estimate D2E/DX2                !
 ! A19   A(2,8,9)              120.0            estimate D2E/DX2                !
 ! A20   A(2,8,10)             120.0            estimate D2E/DX2                !
 ! A21   A(9,8,10)             120.0            estimate D2E/DX2                !
 ! D1    D(6,1,2,3)             -0.0001         estimate D2E/DX2                !
 ! D2    D(6,1,2,8)            179.9999         estimate D2E/DX2                !
 ! D3    D(11,1,2,3)           179.9999         estimate D2E/DX2                !
 ! D4    D(11,1,2,8)            -0.0001         estimate D2E/DX2                !
 ! D5    D(2,1,6,5)              0.0001         estimate D2E/DX2                !
 ! D6    D(2,1,6,12)          -179.9999         estimate D2E/DX2                !
 ! D7    D(11,1,6,5)          -179.9999         estimate D2E/DX2                !
 ! D8    D(11,1,6,12)            0.0001         estimate D2E/DX2                !
 ! D9    D(1,2,3,4)              0.0001         estimate D2E/DX2                !
 ! D10   D(1,2,3,14)           179.9999         estimate D2E/DX2                !
 ! D11   D(8,2,3,4)           -179.9999         estimate D2E/DX2                !
 ! D12   D(8,2,3,14)            -0.0001         estimate D2E/DX2                !
 ! D13   D(1,2,8,9)            179.9999         estimate D2E/DX2                !
 ! D14   D(1,2,8,10)             0.0            estimate D2E/DX2                !
 ! D15   D(3,2,8,9)             -0.0001         estimate D2E/DX2                !
 ! D16   D(3,2,8,10)          -180.0            estimate D2E/DX2                !
 ! D17   D(2,3,4,5)              0.0            estimate D2E/DX2                !
 ! D18   D(2,3,4,7)            180.0            estimate D2E/DX2                !
 ! D19   D(14,3,4,5)          -179.9998         estimate D2E/DX2                !
 ! D20   D(14,3,4,7)             0.0002         estimate D2E/DX2                !
 ! D21   D(3,4,5,6)              0.0            estimate D2E/DX2                !
 ! D22   D(3,4,5,13)           180.0            estimate D2E/DX2                !
 ! D23   D(7,4,5,6)           -180.0            estimate D2E/DX2                !
 ! D24   D(7,4,5,13)             0.0            estimate D2E/DX2                !
 ! D25   D(4,5,6,1)              0.0            estimate D2E/DX2                !
 ! D26   D(4,5,6,12)           180.0            estimate D2E/DX2                !
 ! D27   D(13,5,6,1)           180.0            estimate D2E/DX2                !
 ! D28   D(13,5,6,12)            0.0            estimate D2E/DX2                !
 --------------------------------------------------------------------------------
 Trust Radius=3.00D-01 FncErr=1.00D-07 GrdErr=1.00D-06
 Number of steps in this run=     73 maximum allowed number of steps=    100.
 GradGradGradGradGradGradGradGradGradGradGradGradGradGradGradGradGradGrad

                          Input orientation:                          
 ---------------------------------------------------------------------
 Center     Atomic      Atomic             Coordinates (Angstroms)
 Number     Number       Type             X           Y           Z
 ---------------------------------------------------------------------
      1          6           0        0.026438    0.057840   -0.001942
      2          6           0        1.427834    0.059063   -0.005165
      3          6           0        2.127291    1.270671   -0.086934
      4          6           0        1.425353    2.481058   -0.165477
      5          6           0        0.023957    2.479835   -0.162252
      6          6           0       -0.675500    1.268227   -0.080484
      7          1           0        1.959404    3.406148   -0.227909
      8          6           0        2.199195   -1.271032    0.081148
      9          8           0        3.457591   -1.269935    0.078251
     10          1           0        1.665144   -2.196122    0.143580
     11          1           0       -0.507613   -0.867250    0.060488
     12          1           0       -1.745497    1.267294   -0.078021
     13          1           0       -0.511989    3.403992   -0.222222
     14         17           0        3.887286    1.272206   -0.090980
 ---------------------------------------------------------------------
                    Distance matrix (angstroms):
                    1          2          3          4          5
     1  C    0.000000
     2  C    1.401400   0.000000
     3  C    2.427296   1.401400   0.000000
     4  C    2.802800   2.427296   1.401400   0.000000
     5  C    2.427296   2.802800   2.427296   1.401400   0.000000
     6  C    1.401400   2.427296   2.802800   2.427296   1.401400
     7  H    3.872800   3.396345   2.146700   1.070000   2.146700
     8  C    2.548270   1.540000   2.548270   3.838989   4.342800
     9  O    3.679977   2.427572   2.872571   4.273095   5.090036
    10  H    2.790498   2.272510   3.505050   4.693509   4.965039
    11  H    1.070000   2.146700   3.396345   3.872800   3.396345
    12  H    2.146700   3.396345   3.872800   3.396345   2.146700
    13  H    3.396345   3.872800   3.396345   2.146700   1.070000
    14  Cl   4.048303   2.743718   1.760000   2.743718   4.048303
                    6          7          8          9         10
     6  C    0.000000
     7  H    3.396345   0.000000
     8  C    3.838989   4.693509   0.000000
     9  O    4.852825   4.919761   1.258400   0.000000
    10  H    4.186948   5.622279   1.070000   2.018653   0.000000
    11  H    2.146700   4.942800   2.736837   3.985638   2.548270
    12  H    1.070000   4.280590   4.693509   5.790861   4.865884
    13  H    2.146700   2.471400   5.412800   6.139499   6.019551
    14  Cl   4.562800   2.879094   3.057342   2.583749   4.125801
                   11         12         13         14
    11  H    0.000000
    12  H    2.471400   0.000000
    13  H    4.280590   2.471400   0.000000
    14  Cl   4.890332   5.632800   4.890332   0.000000
 Stoichiometry    C7H5ClO
 Framework group  C1[X(C7H5ClO)]
 Deg. of freedom    36
 Full point group                 C1      NOp   1
 Largest Abelian subgroup         C1      NOp   1
 Largest concise Abelian subgroup C1      NOp   1
                         Standard orientation:                         
 ---------------------------------------------------------------------
 Center     Atomic      Atomic             Coordinates (Angstroms)
 Number     Number       Type             X           Y           Z
 ---------------------------------------------------------------------
      1          6           0       -1.378729    1.397862    0.000000
      2          6           0       -0.103649    0.816405    0.000000
      3          6           0        0.030335   -0.578575    0.000002
      4          6           0       -1.110761   -1.392099    0.000001
      5          6           0       -2.385841   -0.810643    0.000000
      6          6           0       -2.519826    0.584338   -0.000001
      7          1           0       -1.008461   -2.457197    0.000002
      8          6           0        1.150303    1.710388   -0.000001
      9          8           0        2.295274    1.188263    0.000001
     10          1           0        1.048003    2.775486   -0.000002
     11          1           0       -1.481029    2.462960    0.000002
     12          1           0       -3.493378    1.028293   -0.000003
     13          1           0       -3.257094   -1.431786   -0.000001
     14         17           0        1.631692   -1.308819   -0.000001
 ---------------------------------------------------------------------
 Rotational constants (GHZ):      2.3931072      1.2562974      0.8238205
 Standard basis: 6-311+G(d,p) (5D, 7F)
 There are   245 symmetry adapted cartesian basis functions of A   symmetry.
 There are   236 symmetry adapted basis functions of A   symmetry.
   236 basis functions,   381 primitive gaussians,   245 cartesian basis functions
    36 alpha electrons       36 beta electrons
       nuclear repulsion energy       470.8154336918 Hartrees.
 NAtoms=   14 NActive=   14 NUniq=   14 SFac= 1.00D+00 NAtFMM=   60 NAOKFM=F Big=F
 Integral buffers will be    131072 words long.
 Raffenetti 2 integral format.
 Two-electron integral symmetry is turned on.
 One-electron integrals computed using PRISM.
 NBasis=   236 RedAO= T EigKep=  1.54D-06  NBF=   236
 NBsUse=   236 1.00D-06 EigRej= -1.00D+00 NBFU=   236
 ExpMin= 4.38D-02 ExpMax= 1.06D+05 ExpMxC= 3.62D+03 IAcc=2 IRadAn=         4 AccDes= 0.00D+00
 Harris functional with IExCor=  402 and IRadAn=       4 diagonalized for initial guess.
 HarFok:  IExCor=  402 AccDes= 0.00D+00 IRadAn=         4 IDoV= 1 UseB2=F ITyADJ=14
 ICtDFT=  3500011 ScaDFX=  1.000000  1.000000  1.000000  1.000000
 FoFCou: FMM=F IPFlag=           0 FMFlag=      100000 FMFlg1=           0
         NFxFlg=           0 DoJE=T BraDBF=F KetDBF=T FulRan=T
         wScrn=  0.000000 ICntrl=     500 IOpCl=  0 I1Cent=   200000004 NGrid=           0
         NMat0=    1 NMatS0=      1 NMatT0=    0 NMatD0=    1 NMtDS0=    0 NMtDT0=    0
 Petite list used in FoFCou.
 Keep R1 ints in memory in canonical form, NReq=398711246.
 Requested convergence on RMS density matrix=1.00D-08 within 128 cycles.
 Requested convergence on MAX density matrix=1.00D-06.
 Requested convergence on             energy=1.00D-06.
 No special actions if energy rises.
 SCF Done:  E(RB3LYP) =  -805.266798819     A.U. after   15 cycles
            NFock= 15  Conv=0.62D-08     -V/T= 2.0033

 **********************************************************************

            Population analysis using the SCF density.

 **********************************************************************

 Orbital symmetries:
       Occupied  (A) (A) (A) (A) (A) (A) (A) (A) (A) (A) (A) (A)
                 (A) (A) (A) (A) (A) (A) (A) (A) (A) (A) (A) (A)
                 (A) (A) (A) (A) (A) (A) (A) (A) (A) (A) (A) (A)
       Virtual   (A) (A) (A) (A) (A) (A) (A) (A) (A) (A) (A) (A)
                 (A) (A) (A) (A) (A) (A) (A) (A) (A) (A) (A) (A)
                 (A) (A) (A) (A) (A) (A) (A) (A) (A) (A) (A) (A)
                 (A) (A) (A) (A) (A) (A) (A) (A) (A) (A) (A) (A)
                 (A) (A) (A) (A) (A) (A) (A) (A) (A) (A) (A) (A)
                 (A) (A) (A) (A) (A) (A) (A) (A) (A) (A) (A) (A)
                 (A) (A) (A) (A) (A) (A) (A) (A) (A) (A) (A) (A)
                 (A) (A) (A) (A) (A) (A) (A) (A) (A) (A) (A) (A)
                 (A) (A) (A) (A) (A) (A) (A) (A) (A) (A) (A) (A)
                 (A) (A) (A) (A) (A) (A) (A) (A) (A) (A) (A) (A)
                 (A) (A) (A) (A) (A) (A) (A) (A) (A) (A) (A) (A)
                 (A) (A) (A) (A) (A) (A) (A) (A) (A) (A) (A) (A)
                 (A) (A) (A) (A) (A) (A) (A) (A) (A) (A) (A) (A)
                 (A) (A) (A) (A) (A) (A) (A) (A) (A) (A) (A) (A)
                 (A) (A) (A) (A) (A) (A) (A) (A) (A) (A) (A) (A)
                 (A) (A) (A) (A) (A) (A) (A) (A) (A) (A) (A) (A)
                 (A) (A) (A) (A) (A) (A) (A) (A)
 The electronic state is 1-A.
 Alpha  occ. eigenvalues -- -101.55230 -19.12997 -10.28045 -10.26078 -10.21885
 Alpha  occ. eigenvalues --  -10.21202 -10.20958 -10.20670 -10.20352  -9.46699
 Alpha  occ. eigenvalues --   -7.23190  -7.22217  -7.22066  -1.03834  -0.90599
 Alpha  occ. eigenvalues --   -0.85095  -0.79048  -0.75691  -0.66625  -0.63945
 Alpha  occ. eigenvalues --   -0.59936  -0.54238  -0.50264  -0.48785  -0.46461
 Alpha  occ. eigenvalues --   -0.45404  -0.44011  -0.42768  -0.39417  -0.38576
 Alpha  occ. eigenvalues --   -0.38075  -0.34557  -0.32881  -0.28762  -0.26666
 Alpha  occ. eigenvalues --   -0.25348
 Alpha virt. eigenvalues --   -0.08804  -0.04513  -0.00721  -0.00421   0.00676
 Alpha virt. eigenvalues --    0.01256   0.02409   0.03651   0.04292   0.04680
 Alpha virt. eigenvalues --    0.05452   0.06719   0.07372   0.07631   0.08268
 Alpha virt. eigenvalues --    0.10033   0.10413   0.10734   0.12027   0.12256
 Alpha virt. eigenvalues --    0.12790   0.13496   0.13787   0.15059   0.15870
 Alpha virt. eigenvalues --    0.16423   0.16779   0.17315   0.18098   0.18430
 Alpha virt. eigenvalues --    0.18736   0.19479   0.20481   0.20805   0.21222
 Alpha virt. eigenvalues --    0.22065   0.23442   0.24158   0.24709   0.24955
 Alpha virt. eigenvalues --    0.26294   0.26307   0.27276   0.27680   0.28928
 Alpha virt. eigenvalues --    0.29984   0.31164   0.31966   0.32907   0.33743
 Alpha virt. eigenvalues --    0.39878   0.41053   0.42078   0.45004   0.46631
 Alpha virt. eigenvalues --    0.46701   0.49723   0.50565   0.51772   0.51878
 Alpha virt. eigenvalues --    0.52493   0.53186   0.56743   0.56828   0.58164
 Alpha virt. eigenvalues --    0.59213   0.59541   0.62148   0.62414   0.64456
 Alpha virt. eigenvalues --    0.66421   0.66740   0.67656   0.69602   0.71649
 Alpha virt. eigenvalues --    0.72024   0.77952   0.78856   0.80751   0.81705
 Alpha virt. eigenvalues --    0.83599   0.83913   0.84786   0.85375   0.86658
 Alpha virt. eigenvalues --    0.87744   0.88428   0.90113   0.94063   0.95854
 Alpha virt. eigenvalues --    0.97355   0.97600   1.00576   1.02407   1.03066
 Alpha virt. eigenvalues --    1.07444   1.07454   1.08924   1.10379   1.15596
 Alpha virt. eigenvalues --    1.17807   1.24875   1.25377   1.27220   1.27562
 Alpha virt. eigenvalues --    1.31189   1.37217   1.44864   1.47497   1.48497
 Alpha virt. eigenvalues --    1.50423   1.52572   1.54260   1.56003   1.56833
 Alpha virt. eigenvalues --    1.59837   1.63294   1.64846   1.69288   1.69563
 Alpha virt. eigenvalues --    1.71569   1.72834   1.79505   1.80153   1.84192
 Alpha virt. eigenvalues --    1.87454   1.88623   1.90233   1.92081   1.92980
 Alpha virt. eigenvalues --    1.95732   1.96279   1.98756   2.01623   2.04572
 Alpha virt. eigenvalues --    2.12541   2.16722   2.23289   2.28294   2.28865
 Alpha virt. eigenvalues --    2.30666   2.33813   2.37101   2.40685   2.44852
 Alpha virt. eigenvalues --    2.52425   2.55400   2.58299   2.61202   2.62796
 Alpha virt. eigenvalues --    2.65353   2.66603   2.67891   2.70028   2.72320
 Alpha virt. eigenvalues --    2.73615   2.75989   2.76936   2.78412   2.82638
 Alpha virt. eigenvalues --    2.84626   2.85426   2.85832   2.91115   2.95541
 Alpha virt. eigenvalues --    3.05054   3.10370   3.13417   3.19209   3.28546
 Alpha virt. eigenvalues --    3.30709   3.35010   3.39439   3.46636   3.49354
 Alpha virt. eigenvalues --    3.54194   3.62595   3.80835   3.96235   4.02660
 Alpha virt. eigenvalues --    4.06277   4.13474   4.26815   4.80274   5.00362
 Alpha virt. eigenvalues --    5.15137   5.69036   9.80454  23.50351  23.79347
 Alpha virt. eigenvalues --   23.87929  23.92743  24.00816  24.04281  24.13390
 Alpha virt. eigenvalues --   25.83536  26.22413  26.64517  49.93509 215.79850
          Condensed to atoms (all electrons):
               1          2          3          4          5          6
     1  C   16.197868  -2.717971  -0.998566  -5.886192   0.771592  -0.736152
     2  C   -2.717971  17.640517  -6.427005  -1.005328  -2.783159   1.001709
     3  C   -0.998566  -6.427005  21.813286  -4.686192   0.266366  -2.655366
     4  C   -5.886192  -1.005328  -4.686192  16.030545   0.740263   1.118727
     5  C    0.771592  -2.783159   0.266366   0.740263   6.641553   0.330801
     6  C   -0.736152   1.001709  -2.655366   1.118727   0.330801   6.521916
     7  H   -0.017011   0.017461  -0.023698   0.422508  -0.045808  -0.004380
     8  C   -0.903079   0.144505  -1.559544   0.765472  -0.198102   0.046410
     9  O   -0.227031  -0.284761   0.050548   0.396687   0.014833   0.013631
    10  H   -0.006375  -0.117392  -0.045336   0.026232  -0.007333   0.031802
    11  H    0.220379   0.050277  -0.011925   0.024954  -0.019391   0.026302
    12  H   -0.018035  -0.015617   0.010242  -0.021603   0.015640   0.376165
    13  H   -0.051007   0.020267  -0.037715   0.011564   0.365382   0.040752
    14  Cl   0.957368   0.470702  -0.839135  -1.094196   0.120817  -0.057413
               7          8          9         10         11         12
     1  C   -0.017011  -0.903079  -0.227031  -0.006375   0.220379  -0.018035
     2  C    0.017461   0.144505  -0.284761  -0.117392   0.050277  -0.015617
     3  C   -0.023698  -1.559544   0.050548  -0.045336  -0.011925   0.010242
     4  C    0.422508   0.765472   0.396687   0.026232   0.024954  -0.021603
     5  C   -0.045808  -0.198102   0.014833  -0.007333  -0.019391   0.015640
     6  C   -0.004380   0.046410   0.013631   0.031802   0.026302   0.376165
     7  H    0.503380   0.007280   0.000016   0.000015   0.000055  -0.000205
     8  C    0.007280   7.647764   0.235840   0.426769   0.050628   0.004493
     9  O    0.000016   0.235840   8.241790  -0.028420   0.000695   0.000013
    10  H    0.000015   0.426769  -0.028420   0.594662   0.003311   0.000047
    11  H    0.000055   0.050628   0.000695   0.003311   0.529067  -0.007185
    12  H   -0.000205   0.004493   0.000013   0.000047  -0.007185   0.526534
    13  H   -0.007511   0.001517   0.000011  -0.000004  -0.000247  -0.007440
    14  Cl  -0.005573  -0.295224  -0.233629  -0.008313  -0.001600   0.000836
              13         14
     1  C   -0.051007   0.957368
     2  C    0.020267   0.470702
     3  C   -0.037715  -0.839135
     4  C    0.011564  -1.094196
     5  C    0.365382   0.120817
     6  C    0.040752  -0.057413
     7  H   -0.007511  -0.005573
     8  C    0.001517  -0.295224
     9  O    0.000011  -0.233629
    10  H   -0.000004  -0.008313
    11  H   -0.000247  -0.001600
    12  H   -0.007440   0.000836
    13  H    0.522127   0.001146
    14  Cl   0.001146  17.577272
 Mulliken charges:
               1
     1  C   -0.585787
     2  C    0.005795
     3  C    1.144041
     4  C   -0.843440
     5  C   -0.213454
     6  C   -0.054904
     7  H    0.153471
     8  C   -0.374727
     9  O   -0.180222
    10  H    0.130335
    11  H    0.134680
    12  H    0.136114
    13  H    0.141158
    14  Cl   0.406942
 Sum of Mulliken charges =   0.00000
 Mulliken charges with hydrogens summed into heavy atoms:
               1
     1  C   -0.451107
     2  C    0.005795
     3  C    1.144041
     4  C   -0.689969
     5  C   -0.072297
     6  C    0.081210
     8  C   -0.244393
     9  O   -0.180222
    14  Cl   0.406942
 Electronic spatial extent (au):  <R**2>=           1307.2606
 Charge=              0.0000 electrons
 Dipole moment (field-independent basis, Debye):
    X=             -4.4139    Y=              0.9033    Z=              0.0000  Tot=              4.5053
 Quadrupole moment (field-independent basis, Debye-Ang):
   XX=            -60.8817   YY=            -51.6702   ZZ=            -61.5110
   XY=             -0.8097   XZ=              0.0000   YZ=              0.0000
 Traceless Quadrupole moment (field-independent basis, Debye-Ang):
   XX=             -2.8607   YY=              6.3507   ZZ=             -3.4900
   XY=             -0.8097   XZ=              0.0000   YZ=              0.0000
 Octapole moment (field-independent basis, Debye-Ang**2):
  XXX=            -25.8256  YYY=              9.7856  ZZZ=              0.0000  XYY=             -4.0938
  XXY=            -12.3279  XXZ=             -0.0001  XZZ=             10.6564  YZZ=              0.0280
  YYZ=              0.0000  XYZ=              0.0000
 Hexadecapole moment (field-independent basis, Debye-Ang**3):
 XXXX=          -1035.2674 YYYY=           -557.2341 ZZZZ=            -70.2836 XXXY=            -36.0030
 XXXZ=              0.0001 YYYX=              9.8236 YYYZ=              0.0000 ZZZX=              0.0000
 ZZZY=              0.0000 XXYY=           -269.3806 XXZZ=           -203.0853 YYZZ=           -119.7652
 XXYZ=              0.0000 YYXZ=              0.0000 ZZXY=              1.5638
 N-N= 4.708154336918D+02 E-N=-2.839195310478D+03  KE= 8.026132536712D+02
 There are a total of      114324 grid points.
 ElSum from          density=       71.9999796264
 ElSum from atomic densities=       72.0000584835

 Hirshfeld populations at iteration   1 (CX, CA, CB, DipXYZ):
               1          2          3          4          5          6
     1  C    0.000000   3.016114   3.016114  -0.008075   0.067574   0.000000
     2  C    0.000000   3.009254   3.009254   0.038895   0.031251   0.000000
     3  C    0.000001   2.976332   2.976332   0.081502  -0.030300   0.000000
     4  C    0.000000   3.019231   3.019231  -0.007369  -0.061657   0.000000
     5  C    0.000000   3.012582   3.012582  -0.061250  -0.046258   0.000000
     6  C    0.000000   3.020817   3.020817  -0.062172   0.024527   0.000000
     7  H    0.000003   0.471782   0.471782  -0.003441  -0.166026   0.000000
     8  C    0.000000   2.933623   2.933623  -0.035809   0.034593   0.000000
     9  O    0.000010   4.119067   4.119067  -0.119904  -0.028010   0.000000
    10  H    0.000003   0.472255   0.472255  -0.006522   0.152155   0.000000
    11  H    0.000002   0.473112   0.473112  -0.025567   0.161739   0.000000
    12  H    0.000002   0.474006   0.474006  -0.151842   0.068474   0.000000
    13  H    0.000002   0.471195   0.471195  -0.137211  -0.097644   0.000000
    14  Cl   0.000008   8.530621   8.530621   0.058823   0.046443   0.000000
       Tot   0.000030  35.999990  35.999990  -0.439943   0.156862   0.000000

 Dip from Atomic Chgs             -1.296369   0.198567  -0.000001
         Total Dipole             -1.736312   0.355430  -0.000001

 Hirshfeld charges, spin densities, dipoles, and CM5 charges using IRadAn=      4:
              Q-H        S-H        Dx         Dy         Dz        Q-CM5   
     1  C   -0.032228   0.000000  -0.008075   0.067574   0.000000  -0.086763
     2  C   -0.018509   0.000000   0.038895   0.031251   0.000000  -0.023123
     3  C    0.047336   0.000000   0.081502  -0.030300   0.000000   0.044142
     4  C   -0.038462   0.000000  -0.007369  -0.061657   0.000000  -0.092339
     5  C   -0.025163   0.000000  -0.061250  -0.046258   0.000000  -0.082519
     6  C   -0.041633   0.000000  -0.062172   0.024527   0.000000  -0.099006
     7  H    0.056435   0.000000  -0.003441  -0.166026   0.000000   0.112958
     8  C    0.132755   0.000000  -0.035809   0.034593   0.000000   0.114142
     9  O   -0.238134   0.000000  -0.119904  -0.028010   0.000000  -0.281854
    10  H    0.055489   0.000000  -0.006522   0.152155   0.000000   0.121245
    11  H    0.053776   0.000000  -0.025567   0.161739   0.000000   0.112239
    12  H    0.051989   0.000000  -0.151842   0.068474   0.000000   0.109558
    13  H    0.057610   0.000000  -0.137211  -0.097644   0.000000   0.115167
    14  Cl  -0.061242   0.000000   0.058823   0.046443   0.000000  -0.063826
       Tot   0.000020   0.000000  -0.439943   0.156862   0.000000   0.000020
 Hirshfeld charges with hydrogens summed into heavy atoms:
              Q-H       Q-CM5   
     1  C    0.021549   0.025475
     2  C   -0.018509  -0.023123
     3  C    0.047336   0.044142
     4  C    0.017973   0.020619
     5  C    0.032447   0.032649
     6  C    0.010356   0.010552
     8  C    0.188244   0.235386
     9  O   -0.238134  -0.281854
    14  Cl  -0.061242  -0.063826
 
 EQQ= 0.000000000000E+00 EQD= 0.000000000000E+00 EDD= 0.787348600841E-02
 EQQ+QD+DD= 0.787348600841E-02
 
          MBS Condensed to atoms (all electrons):
               1          2          3          4          5          6
     1  C    4.825223   0.492816  -0.028744  -0.010819  -0.030555   0.506007
     2  C    0.492816   4.853731   0.492392  -0.031483  -0.010602  -0.029844
     3  C   -0.028744   0.492392   4.709926   0.503009  -0.027304  -0.011202
     4  C   -0.010819  -0.031483   0.503009   4.826100   0.500132  -0.030750
     5  C   -0.030555  -0.010602  -0.027304   0.500132   4.812116   0.500916
     6  C    0.506007  -0.029844  -0.011202  -0.030750   0.500916   4.827335
     7  H    0.000058   0.001407  -0.025541   0.390321  -0.024022   0.001460
     8  C   -0.023256   0.377524  -0.024047   0.000693   0.000018   0.000729
     9  O    0.000262  -0.026260  -0.001776  -0.000002   0.000000  -0.000001
    10  H   -0.000855  -0.035489   0.000942  -0.000018  -0.000001  -0.000028
    11  H    0.391155  -0.026822   0.001381   0.000029   0.001491  -0.025162
    12  H   -0.025746   0.001482   0.000062   0.001498  -0.025697   0.393113
    13  H    0.001507   0.000038   0.001404  -0.025189   0.392983  -0.025418
    14  Cl   0.000601  -0.027674   0.271506  -0.028096   0.000614   0.000009
               7          8          9         10         11         12
     1  C    0.000058  -0.023256   0.000262  -0.000855   0.391155  -0.025746
     2  C    0.001407   0.377524  -0.026260  -0.035489  -0.026822   0.001482
     3  C   -0.025541  -0.024047  -0.001776   0.000942   0.001381   0.000062
     4  C    0.390321   0.000693  -0.000002  -0.000018   0.000029   0.001498
     5  C   -0.024022   0.000018   0.000000  -0.000001   0.001491  -0.025697
     6  C    0.001460   0.000729  -0.000001  -0.000028  -0.025162   0.393113
     7  H    0.527135  -0.000017   0.000001   0.000001   0.000002  -0.000038
     8  C   -0.000017   4.659667   0.440208   0.363758  -0.003562  -0.000015
     9  O    0.000001   0.440208   7.986780  -0.024061   0.000016   0.000000
    10  H    0.000001   0.363758  -0.024061   0.575699   0.001828   0.000001
    11  H    0.000002  -0.003562   0.000016   0.001828   0.542181  -0.003558
    12  H   -0.000038  -0.000015   0.000000   0.000001  -0.003558   0.543042
    13  H   -0.003775   0.000000   0.000000   0.000000  -0.000042  -0.003582
    14  Cl  -0.001493  -0.003639   0.001546   0.000030  -0.000014   0.000000
              13         14
     1  C    0.001507   0.000601
     2  C    0.000038  -0.027674
     3  C    0.001404   0.271506
     4  C   -0.025189  -0.028096
     5  C    0.392983   0.000614
     6  C   -0.025418   0.000009
     7  H   -0.003775  -0.001493
     8  C    0.000000  -0.003639
     9  O    0.000000   0.001546
    10  H    0.000000   0.000030
    11  H   -0.000042  -0.000014
    12  H   -0.003582   0.000000
    13  H    0.536927  -0.000012
    14  Cl  -0.000012  16.956655
 MBS Mulliken charges:
               1
     1  C   -0.097656
     2  C   -0.031215
     3  C    0.137992
     4  C   -0.095426
     5  C   -0.090090
     6  C   -0.107164
     7  H    0.134503
     8  C    0.211938
     9  O   -0.376713
    10  H    0.118192
    11  H    0.121078
    12  H    0.119436
    13  H    0.125159
    14  Cl  -0.170033
 Sum of MBS Mulliken charges =   0.00000
 MBS Mulliken charges with hydrogens summed into heavy atoms:
               1
     1  C    0.023422
     2  C   -0.031215
     3  C    0.137992
     4  C    0.039076
     5  C    0.035069
     6  C    0.012272
     8  C    0.330130
     9  O   -0.376713
    14  Cl  -0.170033
 Breneman (CHELPG) radii used.
 Generate Potential Derived Charges using the Breneman model, NDens= 1.
 Grid spacing= 0.300 Box extension= 2.800
 NStep X,Y,Z=   39     37     20   Total possible points=       28860
 Number of Points to Fit=   10264

 **********************************************************************

            Electrostatic Properties Using The SCF Density

 **********************************************************************

       Atomic Center    1 is at  -1.378729  1.397862  0.000000
       Atomic Center    2 is at  -0.103649  0.816405  0.000000
       Atomic Center    3 is at   0.030335 -0.578575  0.000002
       Atomic Center    4 is at  -1.110761 -1.392099  0.000001
       Atomic Center    5 is at  -2.385841 -0.810643  0.000000
       Atomic Center    6 is at  -2.519826  0.584338 -0.000001
       Atomic Center    7 is at  -1.008461 -2.457197  0.000002
       Atomic Center    8 is at   1.150303  1.710388 -0.000001
       Atomic Center    9 is at   2.295274  1.188263  0.000001
       Atomic Center   10 is at   1.048003  2.775486 -0.000002
       Atomic Center   11 is at  -1.481029  2.462960  0.000002
       Atomic Center   12 is at  -3.493378  1.028293 -0.000003
       Atomic Center   13 is at  -3.257094 -1.431786 -0.000001
       Atomic Center   14 is at   1.631692 -1.308819 -0.000001
   10264 points will be used for fitting atomic charges
 Fitting point charges to electrostatic potential
 Charges from ESP fit, RMS=   0.00495 RRMS=   0.27204:
 ESP charges:
               1
     1  C   -0.264239
     2  C    0.163241
     3  C    0.019950
     4  C   -0.019218
     5  C   -0.131123
     6  C   -0.015300
     7  H    0.067662
     8  C    0.276527
     9  O   -0.392175
    10  H    0.039106
    11  H    0.136524
    12  H    0.087216
    13  H    0.119883
    14  Cl  -0.088055
 Sum of ESP charges =   0.00000
 ESP charges with hydrogens summed into heavy atoms:
               1
     1  C   -0.127716
     2  C    0.163241
     3  C    0.019950
     4  C    0.048444
     5  C   -0.011240
     6  C    0.071917
     8  C    0.315634
     9  O   -0.392175
    14  Cl  -0.088055
 Charge=   0.00000 Dipole=    -4.4650     0.9378     0.0000 Tot=     4.5625
 -----------------------------------------------------------------

              Electrostatic Properties (Atomic Units)

 -----------------------------------------------------------------
    Center     Electric         -------- Electric Field --------
               Potential          X             Y             Z
 -----------------------------------------------------------------
    1 Atom    -14.739539
    2 Atom    -14.731637
    3 Atom    -14.689351
    4 Atom    -14.744852
    5 Atom    -14.742145
    6 Atom    -14.747619
    7 Atom     -1.083156
    8 Atom    -14.672162
    9 Atom    -22.372577
   10 Atom     -1.073757
   11 Atom     -1.075963
   12 Atom     -1.085662
   13 Atom     -1.081235
   14 Atom    -64.398835
 -----------------------------------------------------------------
 ******************************Gaussian NBO Version 3.1******************************
             N A T U R A L   A T O M I C   O R B I T A L   A N D
          N A T U R A L   B O N D   O R B I T A L   A N A L Y S I S
 ******************************Gaussian NBO Version 3.1******************************
       /RESON  / : Allow strongly delocalized NBO set

 Analyzing the SCF density

 Job title: Title Card Required                                             

 Storage needed:    168242 in NPA ( 536869820 available)


 NATURAL POPULATIONS:  Natural atomic orbital occupancies 
                                                          
   NAO  Atom  No  lang   Type(AO)    Occupancy      Energy
 ----------------------------------------------------------
     1    C    1  S      Cor( 1S)     1.99910     -10.06317
     2    C    1  S      Val( 2S)     0.94473      -0.18750
     3    C    1  S      Ryd( 3S)     0.00127       0.80153
     4    C    1  S      Ryd( 4S)     0.00011       0.83905
     5    C    1  S      Ryd( 5S)     0.00001      22.82037
     6    C    1  px     Val( 2p)     1.05528      -0.07471
     7    C    1  px     Ryd( 4p)     0.00364       0.75024
     8    C    1  px     Ryd( 3p)     0.00053       0.42612
     9    C    1  px     Ryd( 5p)     0.00020       3.09941
    10    C    1  py     Val( 2p)     1.17570      -0.08293
    11    C    1  py     Ryd( 4p)     0.00659       1.04258
    12    C    1  py     Ryd( 3p)     0.00027       0.28125
    13    C    1  py     Ryd( 5p)     0.00005       3.20288
    14    C    1  pz     Val( 2p)     0.96973      -0.13816
    15    C    1  pz     Ryd( 4p)     0.00084       0.48423
    16    C    1  pz     Ryd( 3p)     0.00037       0.30401
    17    C    1  pz     Ryd( 5p)     0.00002       2.65959
    18    C    1  dxy    Ryd( 3d)     0.00062       2.55889
    19    C    1  dxz    Ryd( 3d)     0.00057       1.64107
    20    C    1  dyz    Ryd( 3d)     0.00035       1.58572
    21    C    1  dx2y2  Ryd( 3d)     0.00080       2.47440
    22    C    1  dz2    Ryd( 3d)     0.00041       2.02419

    23    C    2  S      Cor( 1S)     1.99878     -10.07478
    24    C    2  S      Val( 2S)     0.92020      -0.18463
    25    C    2  S      Ryd( 3S)     0.00149       0.76545
    26    C    2  S      Ryd( 4S)     0.00017       1.05927
    27    C    2  S      Ryd( 5S)     0.00001      22.76954
    28    C    2  px     Val( 2p)     1.09228      -0.10212
    29    C    2  px     Ryd( 4p)     0.00699       1.18185
    30    C    2  px     Ryd( 3p)     0.00024       0.62937
    31    C    2  px     Ryd( 5p)     0.00011       3.16046
    32    C    2  py     Val( 2p)     1.10796      -0.11002
    33    C    2  py     Ryd( 4p)     0.00445       1.12642
    34    C    2  py     Ryd( 3p)     0.00013       0.52716
    35    C    2  py     Ryd( 5p)     0.00015       3.20206
    36    C    2  pz     Val( 2p)     1.04465      -0.13897
    37    C    2  pz     Ryd( 4p)     0.00077       0.55072
    38    C    2  pz     Ryd( 3p)     0.00026       0.50032
    39    C    2  pz     Ryd( 5p)     0.00001       2.54809
    40    C    2  dxy    Ryd( 3d)     0.00084       2.46916
    41    C    2  dxz    Ryd( 3d)     0.00049       1.59583
    42    C    2  dyz    Ryd( 3d)     0.00046       1.61771
    43    C    2  dx2y2  Ryd( 3d)     0.00077       2.53846
    44    C    2  dz2    Ryd( 3d)     0.00040       2.01261

    45    C    3  S      Cor( 1S)     1.99850     -10.12944
    46    C    3  S      Val( 2S)     0.93044      -0.23074
    47    C    3  S      Ryd( 4S)     0.00080       0.83463
    48    C    3  S      Ryd( 3S)     0.00031       0.55862
    49    C    3  S      Ryd( 5S)     0.00001      23.29603
    50    C    3  px     Val( 2p)     0.96831      -0.16132
    51    C    3  px     Ryd( 4p)     0.00753       0.94498
    52    C    3  px     Ryd( 3p)     0.00024       0.71400
    53    C    3  px     Ryd( 5p)     0.00037       2.83794
    54    C    3  py     Val( 2p)     1.05868      -0.10755
    55    C    3  py     Ryd( 4p)     0.00722       0.77149
    56    C    3  py     Ryd( 3p)     0.00042       0.76641
    57    C    3  py     Ryd( 5p)     0.00017       2.91197
    58    C    3  pz     Val( 2p)     1.02474      -0.16006
    59    C    3  pz     Ryd( 3p)     0.00134       0.56605
    60    C    3  pz     Ryd( 4p)     0.00031       0.70403
    61    C    3  pz     Ryd( 5p)     0.00005       2.26985
    62    C    3  dxy    Ryd( 3d)     0.00150       2.29027
    63    C    3  dxz    Ryd( 3d)     0.00140       1.49376
    64    C    3  dyz    Ryd( 3d)     0.00073       1.59666
    65    C    3  dx2y2  Ryd( 3d)     0.00158       2.32358
    66    C    3  dz2    Ryd( 3d)     0.00082       1.98230

    67    C    4  S      Cor( 1S)     1.99901     -10.05705
    68    C    4  S      Val( 2S)     0.95257      -0.18805
    69    C    4  S      Ryd( 3S)     0.00190       0.76059
    70    C    4  S      Ryd( 4S)     0.00038       1.00742
    71    C    4  S      Ryd( 5S)     0.00001      22.76954
    72    C    4  px     Val( 2p)     1.06483      -0.08248
    73    C    4  px     Ryd( 4p)     0.00561       0.75558
    74    C    4  px     Ryd( 3p)     0.00042       0.39904
    75    C    4  px     Ryd( 5p)     0.00014       3.10343
    76    C    4  py     Val( 2p)     1.18776      -0.08944
    77    C    4  py     Ryd( 4p)     0.00676       0.98787
    78    C    4  py     Ryd( 3p)     0.00040       0.32070
    79    C    4  py     Ryd( 5p)     0.00006       3.18399
    80    C    4  pz     Val( 2p)     0.99248      -0.13505
    81    C    4  pz     Ryd( 4p)     0.00101       0.48236
    82    C    4  pz     Ryd( 3p)     0.00040       0.29324
    83    C    4  pz     Ryd( 5p)     0.00001       2.68575
    84    C    4  dxy    Ryd( 3d)     0.00074       2.54255
    85    C    4  dxz    Ryd( 3d)     0.00046       1.64026
    86    C    4  dyz    Ryd( 3d)     0.00045       1.58576
    87    C    4  dx2y2  Ryd( 3d)     0.00074       2.46377
    88    C    4  dz2    Ryd( 3d)     0.00040       2.00098

    89    C    5  S      Cor( 1S)     1.99918     -10.06407
    90    C    5  S      Val( 2S)     0.95796      -0.19484
    91    C    5  S      Ryd( 3S)     0.00135       0.71749
    92    C    5  S      Ryd( 4S)     0.00012       1.10810
    93    C    5  S      Ryd( 5S)     0.00000      22.70748
    94    C    5  px     Val( 2p)     1.12796      -0.07397
    95    C    5  px     Ryd( 4p)     0.00571       0.93047
    96    C    5  px     Ryd( 3p)     0.00042       0.30561
    97    C    5  px     Ryd( 5p)     0.00009       3.11829
    98    C    5  py     Val( 2p)     1.09772      -0.07515
    99    C    5  py     Ryd( 4p)     0.00490       0.84150
   100    C    5  py     Ryd( 3p)     0.00042       0.35440
   101    C    5  py     Ryd( 5p)     0.00013       3.07270
   102    C    5  pz     Val( 2p)     0.96553      -0.13569
   103    C    5  pz     Ryd( 4p)     0.00081       0.50750
   104    C    5  pz     Ryd( 3p)     0.00024       0.31627
   105    C    5  pz     Ryd( 5p)     0.00001       2.61946
   106    C    5  dxy    Ryd( 3d)     0.00080       2.47632
   107    C    5  dxz    Ryd( 3d)     0.00045       1.60235
   108    C    5  dyz    Ryd( 3d)     0.00047       1.62196
   109    C    5  dx2y2  Ryd( 3d)     0.00064       2.53842
   110    C    5  dz2    Ryd( 3d)     0.00040       2.01591

   111    C    6  S      Cor( 1S)     1.99920     -10.05856
   112    C    6  S      Val( 2S)     0.95517      -0.19179
   113    C    6  S      Ryd( 3S)     0.00142       0.77022
   114    C    6  S      Ryd( 4S)     0.00013       1.05532
   115    C    6  S      Ryd( 5S)     0.00000      22.69491
   116    C    6  px     Val( 2p)     1.15238      -0.07491
   117    C    6  px     Ryd( 4p)     0.00617       0.97084
   118    C    6  px     Ryd( 3p)     0.00030       0.30554
   119    C    6  px     Ryd( 5p)     0.00008       3.13330
   120    C    6  py     Val( 2p)     1.07798      -0.07391
   121    C    6  py     Ryd( 4p)     0.00486       0.79441
   122    C    6  py     Ryd( 3p)     0.00040       0.35446
   123    C    6  py     Ryd( 5p)     0.00014       3.06959
   124    C    6  pz     Val( 2p)     1.00290      -0.13462
   125    C    6  pz     Ryd( 4p)     0.00116       0.49376
   126    C    6  pz     Ryd( 3p)     0.00020       0.28942
   127    C    6  pz     Ryd( 5p)     0.00002       2.66278
   128    C    6  dxy    Ryd( 3d)     0.00075       2.50622
   129    C    6  dxz    Ryd( 3d)     0.00038       1.59592
   130    C    6  dyz    Ryd( 3d)     0.00043       1.63463
   131    C    6  dx2y2  Ryd( 3d)     0.00073       2.51608
   132    C    6  dz2    Ryd( 3d)     0.00040       2.01659

   133    H    7  S      Val( 1S)     0.77307       0.03874
   134    H    7  S      Ryd( 2S)     0.00101       0.88080
   135    H    7  S      Ryd( 3S)     0.00020       1.82848
   136    H    7  px     Ryd( 2p)     0.00015       1.96963
   137    H    7  py     Ryd( 2p)     0.00043       2.70226
   138    H    7  pz     Ryd( 2p)     0.00017       1.58744

   139    C    8  S      Cor( 1S)     1.99942     -10.16314
   140    C    8  S      Val( 2S)     0.94985      -0.24421
   141    C    8  S      Ryd( 4S)     0.00853       0.74084
   142    C    8  S      Ryd( 3S)     0.00040       0.72635
   143    C    8  S      Ryd( 5S)     0.00003      22.87779
   144    C    8  px     Val( 2p)     0.81992      -0.04874
   145    C    8  px     Ryd( 4p)     0.01259       0.92313
   146    C    8  px     Ryd( 3p)     0.00101       0.52812
   147    C    8  px     Ryd( 5p)     0.00013       2.47268
   148    C    8  py     Val( 2p)     1.05943      -0.07720
   149    C    8  py     Ryd( 4p)     0.00300       1.15543
   150    C    8  py     Ryd( 3p)     0.00036       0.56599
   151    C    8  py     Ryd( 5p)     0.00008       2.33596
   152    C    8  pz     Val( 2p)     0.73096      -0.14503
   153    C    8  pz     Ryd( 4p)     0.00093       0.63640
   154    C    8  pz     Ryd( 3p)     0.00051       0.34894
   155    C    8  pz     Ryd( 5p)     0.00004       2.35197
   156    C    8  dxy    Ryd( 3d)     0.00252       2.38749
   157    C    8  dxz    Ryd( 3d)     0.00244       1.56420
   158    C    8  dyz    Ryd( 3d)     0.00051       1.52364
   159    C    8  dx2y2  Ryd( 3d)     0.00280       2.37955
   160    C    8  dz2    Ryd( 3d)     0.00054       1.93184

   161    O    9  S      Cor( 1S)     1.99981     -18.89097
   162    O    9  S      Val( 2S)     1.73545      -0.91322
   163    O    9  S      Ryd( 3S)     0.00308       0.95471
   164    O    9  S      Ryd( 4S)     0.00019       1.42905
   165    O    9  S      Ryd( 5S)     0.00000      49.64821
   166    O    9  px     Val( 2p)     1.60810      -0.29792
   167    O    9  px     Ryd( 3p)     0.00136       0.59116
   168    O    9  px     Ryd( 4p)     0.00019       0.92396
   169    O    9  px     Ryd( 5p)     0.00010       5.23158
   170    O    9  py     Val( 2p)     1.82548      -0.28113
   171    O    9  py     Ryd( 3p)     0.00386       0.65973
   172    O    9  py     Ryd( 4p)     0.00015       0.87697
   173    O    9  py     Ryd( 5p)     0.00003       5.11664
   174    O    9  pz     Val( 2p)     1.34345      -0.26084
   175    O    9  pz     Ryd( 3p)     0.00059       0.46350
   176    O    9  pz     Ryd( 4p)     0.00002       0.90159
   177    O    9  pz     Ryd( 5p)     0.00003       4.96673
   178    O    9  dxy    Ryd( 3d)     0.00120       3.34087
   179    O    9  dxz    Ryd( 3d)     0.00118       3.01134
   180    O    9  dyz    Ryd( 3d)     0.00024       2.86993
   181    O    9  dx2y2  Ryd( 3d)     0.00125       3.32572
   182    O    9  dz2    Ryd( 3d)     0.00038       3.06182

   183    H   10  S      Val( 1S)     0.86018      -0.01546
   184    H   10  S      Ryd( 2S)     0.00242       0.46723
   185    H   10  S      Ryd( 3S)     0.00021       2.12302
   186    H   10  px     Ryd( 2p)     0.00008       1.92015
   187    H   10  py     Ryd( 2p)     0.00074       2.69117
   188    H   10  pz     Ryd( 2p)     0.00007       1.56524

   189    H   11  S      Val( 1S)     0.78666       0.02878
   190    H   11  S      Ryd( 2S)     0.00096       1.09501
   191    H   11  S      Ryd( 3S)     0.00021       1.55819
   192    H   11  px     Ryd( 2p)     0.00012       1.98346
   193    H   11  py     Ryd( 2p)     0.00042       2.71482
   194    H   11  pz     Ryd( 2p)     0.00019       1.58077

   195    H   12  S      Val( 1S)     0.78832       0.03573
   196    H   12  S      Ryd( 2S)     0.00058       0.65009
   197    H   12  S      Ryd( 3S)     0.00018       2.06195
   198    H   12  px     Ryd( 2p)     0.00037       2.57659
   199    H   12  py     Ryd( 2p)     0.00017       2.08837
   200    H   12  pz     Ryd( 2p)     0.00019       1.58087

   201    H   13  S      Val( 1S)     0.78603       0.03465
   202    H   13  S      Ryd( 2S)     0.00046       0.58953
   203    H   13  S      Ryd( 3S)     0.00018       2.10642
   204    H   13  px     Ryd( 2p)     0.00031       2.45054
   205    H   13  py     Ryd( 2p)     0.00021       2.20976
   206    H   13  pz     Ryd( 2p)     0.00018       1.57805

   207   Cl   14  S      Cor( 1S)     2.00000    -100.21873
   208   Cl   14  S      Cor( 2S)     1.99970     -10.47956
   209   Cl   14  S      Val( 3S)     1.83761      -0.99723
   210   Cl   14  S      Ryd( 4S)     0.00249       0.91165
   211   Cl   14  S      Ryd( 5S)     0.00007       1.06947
   212   Cl   14  S      Ryd( 6S)     0.00000      17.18522
   213   Cl   14  S      Ryd( 7S)     0.00000     207.91220
   214   Cl   14  px     Cor( 2p)     1.99993      -7.22341
   215   Cl   14  px     Val( 3p)     1.35553      -0.27456
   216   Cl   14  px     Ryd( 4p)     0.00414       0.38974
   217   Cl   14  px     Ryd( 5p)     0.00027       0.40805
   218   Cl   14  px     Ryd( 6p)     0.00002       3.63753
   219   Cl   14  px     Ryd( 7p)     0.00000      25.08536
   220   Cl   14  py     Cor( 2p)     1.99998      -7.21801
   221   Cl   14  py     Val( 3p)     1.82432      -0.30531
   222   Cl   14  py     Ryd( 4p)     0.00233       0.42462
   223   Cl   14  py     Ryd( 5p)     0.00019       0.42625
   224   Cl   14  py     Ryd( 6p)     0.00002       3.24987
   225   Cl   14  py     Ryd( 7p)     0.00000      25.06303
   226   Cl   14  pz     Cor( 2p)     1.99999      -7.21757
   227   Cl   14  pz     Val( 3p)     1.89942      -0.31681
   228   Cl   14  pz     Ryd( 4p)     0.00186       0.38183
   229   Cl   14  pz     Ryd( 5p)     0.00014       0.39906
   230   Cl   14  pz     Ryd( 6p)     0.00001       2.93288
   231   Cl   14  pz     Ryd( 7p)     0.00000      24.96469
   232   Cl   14  dxy    Ryd( 3d)     0.00337       1.21687
   233   Cl   14  dxz    Ryd( 3d)     0.00200       0.93060
   234   Cl   14  dyz    Ryd( 3d)     0.00038       0.88582
   235   Cl   14  dx2y2  Ryd( 3d)     0.00267       1.18231
   236   Cl   14  dz2    Ryd( 3d)     0.00157       1.01243

 WARNING:  1 low occupancy (<1.9990e) core orbital  found on  C    2
           1 low occupancy (<1.9990e) core orbital  found on  C    3

 WARNING:  Population inversion found on atom  C    1
           Population inversion found on atom  C    2
           Population inversion found on atom  C    3
           Population inversion found on atom  C    4
           Population inversion found on atom  C    5
           Population inversion found on atom  C    6
           Population inversion found on atom  C    8
           Population inversion found on atom  O    9


 Summary of Natural Population Analysis:                  
                                                          
                                       Natural Population 
                Natural  -----------------------------------------------
    Atom  No    Charge         Core      Valence    Rydberg      Total
 -----------------------------------------------------------------------
      C    1   -0.16119      1.99910     4.14544    0.01664     6.16119
      C    2   -0.18161      1.99878     4.16509    0.01774     6.18161
      C    3   -0.00548      1.99850     3.98217    0.02480     6.00548
      C    4   -0.21656      1.99901     4.19765    0.01990     6.21656
      C    5   -0.16533      1.99918     4.14917    0.01697     6.16533
      C    6   -0.20520      1.99920     4.18844    0.01755     6.20520
      H    7    0.22497      0.00000     0.77307    0.00196     0.77503
      C    8    0.40401      1.99942     3.56016    0.03641     5.59599
      O    9   -0.52615      1.99981     6.51248    0.01386     8.52615
      H   10    0.13631      0.00000     0.86018    0.00351     0.86369
      H   11    0.21144      0.00000     0.78666    0.00190     0.78856
      H   12    0.21019      0.00000     0.78832    0.00149     0.78981
      H   13    0.21262      0.00000     0.78603    0.00134     0.78738
     Cl   14    0.06196      9.99960     6.91689    0.02155    16.93804
 =======================================================================
   * Total *    0.00000     25.99260    45.81176    0.19563    72.00000

                                 Natural Population      
 --------------------------------------------------------
   Core                      25.99260 ( 99.9715% of  26)
   Valence                   45.81176 ( 99.5908% of  46)
   Natural Minimal Basis     71.80437 ( 99.7283% of  72)
   Natural Rydberg Basis      0.19563 (  0.2717% of  72)
 --------------------------------------------------------

    Atom  No          Natural Electron Configuration
 ----------------------------------------------------------------------------
      C    1      [core]2S( 0.94)2p( 3.20)4p( 0.01)
      C    2      [core]2S( 0.92)2p( 3.24)4p( 0.01)
      C    3      [core]2S( 0.93)2p( 3.05)3d( 0.01)4p( 0.02)
      C    4      [core]2S( 0.95)2p( 3.25)4p( 0.01)
      C    5      [core]2S( 0.96)2p( 3.19)4p( 0.01)
      C    6      [core]2S( 0.96)2p( 3.23)4p( 0.01)
      H    7            1S( 0.77)
      C    8      [core]2S( 0.95)2p( 2.61)4S( 0.01)3d( 0.01)4p( 0.02)
      O    9      [core]2S( 1.74)2p( 4.78)3p( 0.01)
      H   10            1S( 0.86)
      H   11            1S( 0.79)
      H   12            1S( 0.79)
      H   13            1S( 0.79)
     Cl   14      [core]3S( 1.84)3p( 5.08)3d( 0.01)4p( 0.01)


 NBO analysis skipped by request.
 Calling FoFJK, ICntrl=      2127 FMM=F ISym2X=0 I1Cent= 0 IOpClX= 0 NMat=1 NMatS=1 NMatT=0.
 ***** Axes restored to original set *****
 -------------------------------------------------------------------
 Center     Atomic                   Forces (Hartrees/Bohr)
 Number     Number              X              Y              Z
 -------------------------------------------------------------------
      1        6           0.003357346    0.021079961   -0.001402769
      2        6           0.013085627   -0.033148099    0.002164722
      3        6           0.000024302    0.005426495   -0.000358952
      4        6          -0.005371139   -0.010614143    0.000714574
      5        6           0.010079459   -0.018208340    0.001182637
      6        6           0.013344679   -0.003553861    0.000205217
      7        1           0.005840462    0.006961339   -0.000473887
      8        6           0.068993306    0.049215979   -0.003412835
      9        8          -0.070221322   -0.024875905    0.001804239
     10        1          -0.015596813   -0.014981124    0.001026698
     11        1          -0.004155606   -0.009585470    0.000643877
     12        1          -0.009560719   -0.000185108    0.000033655
     13        1          -0.003908441    0.008631830   -0.000562571
     14       17          -0.005911142    0.023836446   -0.001564605
 -------------------------------------------------------------------
 Cartesian Forces:  Max     0.070221322 RMS     0.019954986

 GradGradGradGradGradGradGradGradGradGradGradGradGradGradGradGradGradGrad
 Berny optimization.
 FormGI is forming the generalized inverse of G from B-inverse, IUseBI=4.
 Internal  Forces:  Max     0.070248850 RMS     0.017319522
 Search for a local minimum.
 Step number   1 out of a maximum of   73
 All quantities printed in internal units (Hartrees-Bohrs-Radians)
 Mixed Optimization -- RFO/linear search
 Second derivative matrix not updated -- first step.
 ITU=  0
     Eigenvalues ---    0.00237   0.00237   0.01506   0.02070   0.02070
     Eigenvalues ---    0.02070   0.02070   0.02070   0.02070   0.02070
     Eigenvalues ---    0.02070   0.16000   0.16000   0.16000   0.16000
     Eigenvalues ---    0.16000   0.22000   0.22000   0.22493   0.24487
     Eigenvalues ---    0.25000   0.25000   0.28519   0.29539   0.37230
     Eigenvalues ---    0.37230   0.37230   0.37230   0.37230   0.41369
     Eigenvalues ---    0.41539   0.45389   0.45389   0.45389   0.45389
     Eigenvalues ---    0.80209
 RFO step:  Lambda=-5.10036626D-02 EMin= 2.36824120D-03
 Linear search not attempted -- first point.
 Maximum step size (   0.300) exceeded in Quadratic search.
    -- Step size scaled by   0.758
 Iteration  1 RMS(Cart)=  0.13265531 RMS(Int)=  0.00961930
 Iteration  2 RMS(Cart)=  0.01134792 RMS(Int)=  0.00004335
 Iteration  3 RMS(Cart)=  0.00006046 RMS(Int)=  0.00003093
 Iteration  4 RMS(Cart)=  0.00000000 RMS(Int)=  0.00003093
 Variable       Old X    -DE/DX   Delta X   Delta X   Delta X     New X
                                 (Linear)    (Quad)   (Total)
    R1        2.64826   0.00086   0.00000   0.00219   0.00224   2.65051
    R2        2.64826  -0.01277   0.00000  -0.01994  -0.01992   2.62834
    R3        2.02201   0.01040   0.00000   0.01863   0.01863   2.04064
    R4        2.64826   0.02578   0.00000   0.04040   0.04044   2.68870
    R5        2.91018  -0.01654   0.00000  -0.03732  -0.03732   2.87286
    R6        2.64826  -0.00717   0.00000  -0.01001  -0.01003   2.63823
    R7        3.32592  -0.00589   0.00000  -0.01289  -0.01289   3.31303
    R8        2.64826  -0.01001   0.00000  -0.01594  -0.01600   2.63226
    R9        2.02201   0.00896   0.00000   0.01606   0.01606   2.03806
   R10        2.64826  -0.01148   0.00000  -0.01891  -0.01895   2.62931
   R11        2.02201   0.00944   0.00000   0.01692   0.01692   2.03893
   R12        2.02201   0.00956   0.00000   0.01713   0.01713   2.03914
   R13        2.37803  -0.07025   0.00000  -0.06246  -0.06246   2.31557
   R14        2.02201   0.02080   0.00000   0.03727   0.03727   2.05927
    A1        2.09440   0.01214   0.00000   0.03346   0.03354   2.12793
    A2        2.09440  -0.00727   0.00000  -0.02106  -0.02110   2.07329
    A3        2.09440  -0.00486   0.00000  -0.01240  -0.01244   2.08196
    A4        2.09440  -0.01466   0.00000  -0.03324  -0.03314   2.06126
    A5        2.09440  -0.04270   0.00000  -0.10944  -0.10949   1.98491
    A6        2.09440   0.05736   0.00000   0.14268   0.14263   2.23702
    A7        2.09440  -0.00467   0.00000  -0.00832  -0.00830   2.08610
    A8        2.09440   0.04207   0.00000   0.10427   0.10426   2.19866
    A9        2.09440  -0.03739   0.00000  -0.09595  -0.09596   1.99843
   A10        2.09440   0.00668   0.00000   0.01768   0.01761   2.11200
   A11        2.09440  -0.00494   0.00000  -0.01459  -0.01455   2.07985
   A12        2.09440  -0.00174   0.00000  -0.00310  -0.00306   2.09134
   A13        2.09440   0.00244   0.00000   0.00121   0.00111   2.09550
   A14        2.09440  -0.00218   0.00000  -0.00407  -0.00402   2.09038
   A15        2.09440  -0.00026   0.00000   0.00286   0.00291   2.09730
   A16        2.09440  -0.00194   0.00000  -0.01079  -0.01082   2.08358
   A17        2.09440   0.00079   0.00000   0.00476   0.00477   2.09917
   A18        2.09440   0.00114   0.00000   0.00603   0.00604   2.10044
   A19        2.09440   0.04349   0.00000   0.12171   0.12171   2.21611
   A20        2.09440  -0.02783   0.00000  -0.08274  -0.08274   2.01165
   A21        2.09440  -0.01566   0.00000  -0.03897  -0.03897   2.05542
    D1        0.00000   0.00000   0.00000   0.00000   0.00000   0.00000
    D2        3.14159   0.00000   0.00000   0.00000   0.00000   3.14159
    D3        3.14159   0.00000   0.00000   0.00000   0.00000   3.14159
    D4        0.00000   0.00000   0.00000   0.00000   0.00000   0.00000
    D5        0.00000   0.00000   0.00000   0.00000   0.00000   0.00000
    D6       -3.14159   0.00000   0.00000   0.00000   0.00000  -3.14159
    D7       -3.14159   0.00000   0.00000   0.00000   0.00000  -3.14159
    D8        0.00000   0.00000   0.00000   0.00000   0.00000   0.00000
    D9        0.00000   0.00000   0.00000   0.00000   0.00000   0.00000
   D10        3.14159   0.00000   0.00000   0.00000   0.00000   3.14159
   D11       -3.14159   0.00000   0.00000   0.00000   0.00000  -3.14159
   D12        0.00000   0.00000   0.00000   0.00000   0.00000   0.00000
   D13        3.14159   0.00000   0.00000   0.00000   0.00000   3.14159
   D14        0.00000   0.00000   0.00000   0.00000   0.00000   0.00000
   D15        0.00000   0.00000   0.00000   0.00000   0.00000   0.00000
   D16       -3.14159   0.00000   0.00000   0.00000   0.00000   3.14159
   D17        0.00000   0.00000   0.00000   0.00000   0.00000   0.00000
   D18        3.14159   0.00000   0.00000   0.00000   0.00000   3.14159
   D19       -3.14159   0.00000   0.00000   0.00000   0.00000  -3.14159
   D20        0.00000   0.00000   0.00000   0.00000   0.00000   0.00000
   D21        0.00000   0.00000   0.00000   0.00000   0.00000   0.00000
   D22        3.14159   0.00000   0.00000   0.00000   0.00000   3.14159
   D23       -3.14159   0.00000   0.00000   0.00000   0.00000  -3.14159
   D24        0.00000   0.00000   0.00000   0.00000   0.00000   0.00000
   D25        0.00000   0.00000   0.00000   0.00000   0.00000   0.00000
   D26        3.14159   0.00000   0.00000   0.00000   0.00000   3.14159
   D27        3.14159   0.00000   0.00000   0.00000   0.00000   3.14159
   D28        0.00000   0.00000   0.00000   0.00000   0.00000   0.00000
         Item               Value     Threshold  Converged?
 Maximum Force            0.070249     0.000450     NO 
 RMS     Force            0.017320     0.000300     NO 
 Maximum Displacement     0.597587     0.001800     NO 
 RMS     Displacement     0.135471     0.001200     NO 
 Predicted change in Energy=-2.630864D-02
 GradGradGradGradGradGradGradGradGradGradGradGradGradGradGradGradGradGrad

                          Input orientation:                          
 ---------------------------------------------------------------------
 Center     Atomic      Atomic             Coordinates (Angstroms)
 Number     Number       Type             X           Y           Z
 ---------------------------------------------------------------------
      1          6           0        0.117712    0.061970   -0.002419
      2          6           0        1.520236    0.074705   -0.006408
      3          6           0        2.178780    1.333072   -0.091179
      4          6           0        1.420378    2.502759   -0.166902
      5          6           0        0.028211    2.456996   -0.160750
      6          6           0       -0.628600    1.233186   -0.078270
      7          1           0        1.925528    3.453482   -0.230966
      8          6           0        2.144792   -1.308394    0.083742
      9          8           0        3.340079   -1.577724    0.098888
     10          1           0        1.437306   -2.135305    0.140065
     11          1           0       -0.393590   -0.887017    0.061542
     12          1           0       -1.706883    1.192426   -0.073152
     13          1           0       -0.538190    3.373406   -0.220138
     14         17           0        3.913138    1.588436   -0.111970
 ---------------------------------------------------------------------
                    Distance matrix (angstroms):
                    1          2          3          4          5
     1  C    0.000000
     2  C    1.402588   0.000000
     3  C    2.423135   1.422798   0.000000
     4  C    2.771542   2.435400   1.396093   0.000000
     5  C    2.401923   2.815186   2.427549   1.392932   0.000000
     6  C    1.390857   2.442282   2.809187   2.412049   1.391372
     7  H    3.850038   3.410399   2.140051   1.078497   2.144231
     8  C    2.448341   1.520250   2.647469   3.887478   4.326414
     9  O    3.616976   2.460374   3.139661   4.517327   5.226362
    10  H    2.567031   2.216411   3.554279   4.648242   4.813032
    11  H    1.079860   2.142955   3.401354   3.851395   3.377833
    12  H    2.147575   3.415853   3.888250   3.391979   2.148805
    13  H    3.382783   3.894127   3.400224   2.144026   1.078955
    14  Cl   4.092354   2.833461   1.753180   2.655721   3.981135
                    6          7          8          9         10
     6  C    0.000000
     7  H    3.387714   0.000000
     8  C    3.765313   4.777299   0.000000
     9  O    4.866520   5.236678   1.225349   0.000000
    10  H    3.957571   5.622328   1.089721   1.983214   0.000000
    11  H    2.137765   4.929889   2.573215   3.797204   2.217334
    12  H    1.079065   4.281553   4.595009   5.759788   4.583141
    13  H    2.146821   2.465043   5.404626   6.297336   5.863295
    14  Cl   4.555735   2.728214   3.399555   3.224504   4.478785
                   11         12         13         14
    11  H    0.000000
    12  H    2.463121   0.000000
    13  H    4.272173   2.478734   0.000000
    14  Cl   4.970501   5.634089   4.797097   0.000000
 Stoichiometry    C7H5ClO
 Framework group  C1[X(C7H5ClO)]
 Deg. of freedom    36
 Full point group                 C1      NOp   1
 Largest Abelian subgroup         C1      NOp   1
 Largest concise Abelian subgroup C1      NOp   1
                         Standard orientation:                         
 ---------------------------------------------------------------------
 Center     Atomic      Atomic             Coordinates (Angstroms)
 Number     Number       Type             X           Y           Z
 ---------------------------------------------------------------------
      1          6           0       -1.250325    1.433020    0.000000
      2          6           0        0.004104    0.805596    0.000000
      3          6           0        0.042057   -0.616695    0.000001
      4          6           0       -1.153961   -1.336846    0.000001
      5          6           0       -2.384553   -0.684233    0.000000
      6          6           0       -2.436153    0.706182   -0.000001
      7          1           0       -1.118454   -2.414759    0.000002
      8          6           0        1.173775    1.776693   -0.000001
      9          8           0        2.366132    1.494264    0.000001
     10          1           0        0.902012    2.831982   -0.000002
     11          1           0       -1.292123    2.512070    0.000001
     12          1           0       -3.386951    1.216441   -0.000003
     13          1           0       -3.296633   -1.260647    0.000000
     14         17           0        1.487848   -1.608323   -0.000001
 ---------------------------------------------------------------------
 Rotational constants (GHZ):      1.9646865      1.3179449      0.7888027
 Standard basis: 6-311+G(d,p) (5D, 7F)
 There are   245 symmetry adapted cartesian basis functions of A   symmetry.
 There are   236 symmetry adapted basis functions of A   symmetry.
   236 basis functions,   381 primitive gaussians,   245 cartesian basis functions
    36 alpha electrons       36 beta electrons
       nuclear repulsion energy       463.7228929438 Hartrees.
 NAtoms=   14 NActive=   14 NUniq=   14 SFac= 1.00D+00 NAtFMM=   60 NAOKFM=F Big=F
 Integral buffers will be    131072 words long.
 Raffenetti 2 integral format.
 Two-electron integral symmetry is turned on.
 One-electron integrals computed using PRISM.
 NBasis=   236 RedAO= T EigKep=  1.40D-06  NBF=   236
 NBsUse=   236 1.00D-06 EigRej= -1.00D+00 NBFU=   236
 Initial guess from the checkpoint file:  "12.chk"
 B after Tr=     0.000000    0.000000    0.000000
         Rot=    0.999761    0.000000    0.000000    0.021849 Ang=   2.50 deg.
 ExpMin= 4.38D-02 ExpMax= 1.06D+05 ExpMxC= 3.62D+03 IAcc=2 IRadAn=         4 AccDes= 0.00D+00
 Harris functional with IExCor=  402 and IRadAn=       4 diagonalized for initial guess.
 HarFok:  IExCor=  402 AccDes= 0.00D+00 IRadAn=         4 IDoV= 1 UseB2=F ITyADJ=14
 ICtDFT=  3500011 ScaDFX=  1.000000  1.000000  1.000000  1.000000
 FoFCou: FMM=F IPFlag=           0 FMFlag=      100000 FMFlg1=           0
         NFxFlg=           0 DoJE=T BraDBF=F KetDBF=T FulRan=T
         wScrn=  0.000000 ICntrl=     500 IOpCl=  0 I1Cent=   200000004 NGrid=           0
         NMat0=    1 NMatS0=      1 NMatT0=    0 NMatD0=    1 NMtDS0=    0 NMtDT0=    0
 Petite list used in FoFCou.
 Keep R1 ints in memory in canonical form, NReq=398711246.
 Requested convergence on RMS density matrix=1.00D-08 within 128 cycles.
 Requested convergence on MAX density matrix=1.00D-06.
 Requested convergence on             energy=1.00D-06.
 No special actions if energy rises.
 SCF Done:  E(RB3LYP) =  -805.279502914     A.U. after   16 cycles
            NFock= 16  Conv=0.45D-08     -V/T= 2.0033
 Calling FoFJK, ICntrl=      2127 FMM=F ISym2X=0 I1Cent= 0 IOpClX= 0 NMat=1 NMatS=1 NMatT=0.
 ***** Axes restored to original set *****
 -------------------------------------------------------------------
 Center     Atomic                   Forces (Hartrees/Bohr)
 Number     Number              X              Y              Z
 -------------------------------------------------------------------
      1        6          -0.000071850    0.008607834   -0.000569570
      2        6           0.010195111   -0.012324830    0.000792854
      3        6          -0.007454463   -0.000880271    0.000075181
      4        6          -0.002631641   -0.003437375    0.000233386
      5        6           0.001983109   -0.004778789    0.000311870
      6        6           0.001974135   -0.001235168    0.000077281
      7        1           0.002076078    0.001987144   -0.000136183
      8        6           0.036651392    0.015550456   -0.001111632
      9        8          -0.024160048    0.010675045   -0.000652372
     10        1          -0.012305307   -0.003268247    0.000243953
     11        1          -0.000473430   -0.003706745    0.000246489
     12        1          -0.003001505   -0.000396718    0.000032953
     13        1          -0.001158938    0.003221023   -0.000210592
     14       17          -0.001622644   -0.010013358    0.000666382
 -------------------------------------------------------------------
 Cartesian Forces:  Max     0.036651392 RMS     0.008495854

 GradGradGradGradGradGradGradGradGradGradGradGradGradGradGradGradGradGrad
 Berny optimization.
 Using GEDIIS/GDIIS optimizer.
 FormGI is forming the generalized inverse of G from B-inverse, IUseBI=4.
 Internal  Forces:  Max     0.025921058 RMS     0.006393109
 Search for a local minimum.
 Step number   2 out of a maximum of   73
 All quantities printed in internal units (Hartrees-Bohrs-Radians)
 Mixed Optimization -- RFO/linear search
 Update second derivatives using D2CorX and points    1    2
 DE= -1.27D-02 DEPred=-2.63D-02 R= 4.83D-01
 Trust test= 4.83D-01 RLast= 3.00D-01 DXMaxT set to 3.00D-01
 ITU=  0  0
 Use linear search instead of GDIIS.
     Eigenvalues ---    0.00237   0.00237   0.01484   0.02070   0.02070
     Eigenvalues ---    0.02070   0.02070   0.02070   0.02070   0.02070
     Eigenvalues ---    0.02070   0.15688   0.16000   0.16000   0.16000
     Eigenvalues ---    0.16001   0.21907   0.22119   0.22547   0.24409
     Eigenvalues ---    0.24892   0.27178   0.29517   0.36416   0.37122
     Eigenvalues ---    0.37230   0.37230   0.37230   0.37943   0.41281
     Eigenvalues ---    0.44134   0.45234   0.45389   0.45389   0.57885
     Eigenvalues ---    0.75043
 RFO step:  Lambda=-4.78220440D-03 EMin= 2.36824120D-03
 Quartic linear search produced a step of -0.19069.
 Iteration  1 RMS(Cart)=  0.03629313 RMS(Int)=  0.00056145
 Iteration  2 RMS(Cart)=  0.00062524 RMS(Int)=  0.00000648
 Iteration  3 RMS(Cart)=  0.00000020 RMS(Int)=  0.00000648
 Variable       Old X    -DE/DX   Delta X   Delta X   Delta X     New X
                                 (Linear)    (Quad)   (Total)
    R1        2.65051   0.00011  -0.00043   0.00039  -0.00005   2.65046
    R2        2.62834  -0.00126   0.00380  -0.00811  -0.00432   2.62402
    R3        2.04064   0.00350  -0.00355   0.01324   0.00968   2.05032
    R4        2.68870  -0.01744  -0.00771  -0.01878  -0.02649   2.66220
    R5        2.87286  -0.02090   0.00712  -0.06882  -0.06171   2.81115
    R6        2.63823  -0.00224   0.00191  -0.00772  -0.00580   2.63243
    R7        3.31303  -0.00307   0.00246  -0.01197  -0.00951   3.30352
    R8        2.63226   0.00067   0.00305  -0.00345  -0.00038   2.63188
    R9        2.03806   0.00273  -0.00306   0.01080   0.00774   2.04581
   R10        2.62931   0.00102   0.00361  -0.00322   0.00040   2.62971
   R11        2.03893   0.00336  -0.00323   0.01241   0.00918   2.04811
   R12        2.03914   0.00301  -0.00327   0.01174   0.00847   2.04761
   R13        2.31557  -0.02592   0.01191  -0.04803  -0.03612   2.27945
   R14        2.05927   0.01048  -0.00711   0.03395   0.02685   2.08612
    A1        2.12793  -0.00068  -0.00640   0.00640  -0.00002   2.12792
    A2        2.07329  -0.00103   0.00402  -0.01079  -0.00675   2.06654
    A3        2.08196   0.00171   0.00237   0.00438   0.00677   2.08872
    A4        2.06126   0.00194   0.00632  -0.00537   0.00094   2.06219
    A5        1.98491   0.01133   0.02088   0.00800   0.02889   2.01380
    A6        2.23702  -0.01327  -0.02720  -0.00264  -0.02983   2.20720
    A7        2.08610   0.00382   0.00158   0.00723   0.00882   2.09492
    A8        2.19866  -0.01796  -0.01988  -0.02777  -0.04766   2.15100
    A9        1.99843   0.01414   0.01830   0.02054   0.03883   2.03727
   A10        2.11200  -0.00252  -0.00336  -0.00425  -0.00758   2.10442
   A11        2.07985   0.00034   0.00277  -0.00352  -0.00076   2.07909
   A12        2.09134   0.00218   0.00058   0.00777   0.00834   2.09968
   A13        2.09550  -0.00021  -0.00021   0.00335   0.00316   2.09866
   A14        2.09038  -0.00062   0.00077  -0.00590  -0.00514   2.08524
   A15        2.09730   0.00082  -0.00055   0.00255   0.00199   2.09929
   A16        2.08358  -0.00236   0.00206  -0.00738  -0.00532   2.07826
   A17        2.09917   0.00089  -0.00091   0.00214   0.00123   2.10040
   A18        2.10044   0.00147  -0.00115   0.00524   0.00409   2.10453
   A19        2.21611  -0.00293  -0.02321   0.01998  -0.00323   2.21287
   A20        2.01165  -0.00598   0.01578  -0.05088  -0.03510   1.97656
   A21        2.05542   0.00891   0.00743   0.03090   0.03833   2.09376
    D1        0.00000   0.00000   0.00000   0.00000   0.00000   0.00000
    D2        3.14159   0.00000   0.00000   0.00000   0.00000   3.14159
    D3        3.14159   0.00000   0.00000   0.00000   0.00000   3.14159
    D4        0.00000   0.00000   0.00000   0.00000   0.00000   0.00000
    D5        0.00000   0.00000   0.00000   0.00000   0.00000   0.00000
    D6       -3.14159   0.00000   0.00000   0.00000   0.00000  -3.14159
    D7       -3.14159   0.00000   0.00000   0.00000   0.00000  -3.14159
    D8        0.00000   0.00000   0.00000   0.00000   0.00000   0.00000
    D9        0.00000   0.00000   0.00000   0.00000   0.00000   0.00000
   D10        3.14159   0.00000   0.00000   0.00000   0.00000   3.14159
   D11       -3.14159   0.00000   0.00000   0.00000   0.00000  -3.14159
   D12        0.00000   0.00000   0.00000   0.00000   0.00000   0.00000
   D13        3.14159   0.00000   0.00000   0.00000   0.00000   3.14159
   D14        0.00000   0.00000   0.00000   0.00000   0.00000   0.00000
   D15        0.00000   0.00000   0.00000   0.00000   0.00000   0.00000
   D16        3.14159   0.00000   0.00000   0.00000   0.00000  -3.14159
   D17        0.00000   0.00000   0.00000   0.00000   0.00000   0.00000
   D18        3.14159   0.00000   0.00000   0.00000   0.00000  -3.14159
   D19       -3.14159   0.00000   0.00000   0.00000   0.00000  -3.14159
   D20        0.00000   0.00000   0.00000   0.00000   0.00000   0.00000
   D21        0.00000   0.00000   0.00000   0.00000   0.00000   0.00000
   D22        3.14159   0.00000   0.00000   0.00000   0.00000   3.14159
   D23       -3.14159   0.00000   0.00000   0.00000   0.00000   3.14159
   D24        0.00000   0.00000   0.00000   0.00000   0.00000   0.00000
   D25        0.00000   0.00000   0.00000   0.00000   0.00000   0.00000
   D26        3.14159   0.00000   0.00000   0.00000   0.00000   3.14159
   D27        3.14159   0.00000   0.00000   0.00000   0.00000   3.14159
   D28        0.00000   0.00000   0.00000   0.00000   0.00000   0.00000
         Item               Value     Threshold  Converged?
 Maximum Force            0.025921     0.000450     NO 
 RMS     Force            0.006393     0.000300     NO 
 Maximum Displacement     0.190527     0.001800     NO 
 RMS     Displacement     0.036245     0.001200     NO 
 Predicted change in Energy=-2.788672D-03
 GradGradGradGradGradGradGradGradGradGradGradGradGradGradGradGradGradGrad

                          Input orientation:                          
 ---------------------------------------------------------------------
 Center     Atomic      Atomic             Coordinates (Angstroms)
 Number     Number       Type             X           Y           Z
 ---------------------------------------------------------------------
[...]
 RMS     Force            0.000035     0.000300     YES
 Maximum Displacement     0.000939     0.001800     YES
 RMS     Displacement     0.000216     0.001200     YES
 Predicted change in Energy=-1.306335D-07
 Optimization completed.
    -- Stationary point found.
                           ----------------------------
                           !   Optimized Parameters   !
                           ! (Angstroms and Degrees)  !
 --------------------------                            --------------------------
 ! Name  Definition              Value          Derivative Info.                !
 --------------------------------------------------------------------------------
 ! R1    R(1,2)                  1.4038         -DE/DX =    0.0001              !
 ! R2    R(1,6)                  1.3878         -DE/DX =    0.0001              !
 ! R3    R(1,11)                 1.0856         -DE/DX =    0.0                 !
 ! R4    R(2,3)                  1.4074         -DE/DX =   -0.0001              !
 ! R5    R(2,8)                  1.4868         -DE/DX =    0.0001              !
 ! R6    R(3,4)                  1.3926         -DE/DX =   -0.0001              !
 ! R7    R(3,14)                 1.7471         -DE/DX =    0.0                 !
 ! R8    R(4,5)                  1.3927         -DE/DX =    0.0                 !
 ! R9    R(4,7)                  1.0825         -DE/DX =    0.0                 !
 ! R10   R(5,6)                  1.3936         -DE/DX =   -0.0001              !
 ! R11   R(5,13)                 1.084          -DE/DX =    0.0                 !
 ! R12   R(6,12)                 1.0831         -DE/DX =    0.0                 !
 ! R13   R(8,9)                  1.2068         -DE/DX =    0.0                 !
 ! R14   R(8,10)                 1.1117         -DE/DX =    0.0                 !
 ! A1    A(2,1,6)              121.9229         -DE/DX =    0.0                 !
 ! A2    A(2,1,11)             118.0998         -DE/DX =    0.0                 !
 ! A3    A(6,1,11)             119.9773         -DE/DX =    0.0                 !
 ! A4    A(1,2,3)              117.942          -DE/DX =   -0.0001              !
 ! A5    A(1,2,8)              115.9644         -DE/DX =    0.0                 !
 ! A6    A(3,2,8)              126.0936         -DE/DX =    0.0001              !
 ! A7    A(2,3,4)              120.4812         -DE/DX =    0.0                 !
 ! A8    A(2,3,14)             122.2109         -DE/DX =    0.0                 !
 ! A9    A(4,3,14)             117.3079         -DE/DX =    0.0                 !
 ! A10   A(3,4,5)              120.2229         -DE/DX =    0.0                 !
 ! A11   A(3,4,7)              119.1758         -DE/DX =    0.0                 !
 ! A12   A(5,4,7)              120.6013         -DE/DX =    0.0                 !
 ! A13   A(4,5,6)              120.3547         -DE/DX =    0.0                 !
 ! A14   A(4,5,13)             119.307          -DE/DX =    0.0                 !
 ! A15   A(6,5,13)             120.3383         -DE/DX =    0.0                 !
 ! A16   A(1,6,5)              119.0763         -DE/DX =    0.0                 !
 ! A17   A(1,6,12)             120.3643         -DE/DX =    0.0001              !
 ! A18   A(5,6,12)             120.5594         -DE/DX =    0.0                 !
 ! A19   A(2,8,9)              127.4236         -DE/DX =    0.0001              !
 ! A20   A(2,8,10)             112.2289         -DE/DX =    0.0                 !
 ! A21   A(9,8,10)             120.3474         -DE/DX =   -0.0001              !
 ! D1    D(6,1,2,3)              0.0            -DE/DX =    0.0                 !
 ! D2    D(6,1,2,8)            180.0            -DE/DX =    0.0                 !
 ! D3    D(11,1,2,3)           180.0            -DE/DX =    0.0                 !
 ! D4    D(11,1,2,8)             0.0            -DE/DX =    0.0                 !
 ! D5    D(2,1,6,5)              0.0            -DE/DX =    0.0                 !
 ! D6    D(2,1,6,12)           180.0            -DE/DX =    0.0                 !
 ! D7    D(11,1,6,5)           180.0            -DE/DX =    0.0                 !
 ! D8    D(11,1,6,12)            0.0            -DE/DX =    0.0                 !
 ! D9    D(1,2,3,4)              0.0            -DE/DX =    0.0                 !
 ! D10   D(1,2,3,14)           180.0            -DE/DX =    0.0                 !
 ! D11   D(8,2,3,4)           -180.0            -DE/DX =    0.0                 !
 ! D12   D(8,2,3,14)             0.0            -DE/DX =    0.0                 !
 ! D13   D(1,2,8,9)            179.9963         -DE/DX =    0.0                 !
 ! D14   D(1,2,8,10)             0.0046         -DE/DX =    0.0                 !
 ! D15   D(3,2,8,9)             -0.0038         -DE/DX =    0.0                 !
 ! D16   D(3,2,8,10)           180.0046         -DE/DX =    0.0                 !
 ! D17   D(2,3,4,5)              0.0            -DE/DX =    0.0                 !
 ! D18   D(2,3,4,7)            180.0            -DE/DX =    0.0                 !
 ! D19   D(14,3,4,5)          -180.0            -DE/DX =    0.0                 !
 ! D20   D(14,3,4,7)             0.0            -DE/DX =    0.0                 !
 ! D21   D(3,4,5,6)              0.0            -DE/DX =    0.0                 !
 ! D22   D(3,4,5,13)           180.0            -DE/DX =    0.0                 !
 ! D23   D(7,4,5,6)            180.0            -DE/DX =    0.0                 !
 ! D24   D(7,4,5,13)             0.0            -DE/DX =    0.0                 !
 ! D25   D(4,5,6,1)              0.0            -DE/DX =    0.0                 !
 ! D26   D(4,5,6,12)           180.0            -DE/DX =    0.0                 !
 ! D27   D(13,5,6,1)          -180.0            -DE/DX =    0.0                 !
 ! D28   D(13,5,6,12)            0.0            -DE/DX =    0.0                 !
 --------------------------------------------------------------------------------
 GradGradGradGradGradGradGradGradGradGradGradGradGradGradGradGradGradGrad

 1\1\GINC-COREV4-21-005\Freq\RB3LYP\6-311+G(d,p)\C7H5Cl1O1\SWEAV003\23-
 Apr-2024\0\\#N Geom=AllCheck Guess=TCheck SCRF=Check GenChk RB3LYP/6-3
 11+G(d,p) Freq\\Title Card Required\\0,1\C,0.1075761623,0.0595634047,-
 0.002223208\C,1.5113579554,0.071614327,-0.0061652693\C,2.1599051238,1.
 3178025456,-0.0901162674\C,1.4203356631,2.4953080281,-0.1664109813\C,0
 .0284060569,2.4505232836,-0.1603288623\C,-0.636548006,1.2285703825,-0.
 0779457379\H,1.9409333685,3.4422438365,-0.2302643104\C,2.1739581846,-1
 .2565401648,0.0802757598\O,3.358733601,-1.4856115304,0.0927242372\H,1.
 4401910994,-2.089689354,0.1369918974\H,-0.3953545466,-0.9003457378,0.0
 624500561\H,-1.7189884609,1.1898808003,-0.0729600805\H,-0.5325202361,3
 .3761584932,-0.2203500032\Cl,3.9009087847,1.4625171255,-0.1035951102\\
 Version=ES64L-G09RevD.01\State=1-A\HF=-805.2831378\RMSD=4.125e-09\RMSF
 =4.649e-05\ZeroPoint=0.0996854\Thermal=0.1072193\Dipole=-1.680605,0.68
 04494,-0.0412548\DipoleDeriv=0.0826802,-0.1923561,0.0122852,0.0405063,
 0.1255843,-0.0155863,-0.0031311,-0.0150638,-0.1075532,-0.4162132,0.148
 3021,-0.0087206,0.2429792,-0.7709905,0.0520051,-0.0151233,0.052212,0.0
 194964,1.1715313,0.3102852,-0.0234925,-0.1107447,0.20086,-0.0125846,0.
 0048103,-0.0135285,0.0074743,-0.4457658,0.0899798,-0.0050261,0.2205963
 ,0.0031978,-0.0082539,-0.0138986,-0.0079304,-0.1128812,0.194677,0.0019
 497,-0.0007663,0.0660007,0.1411726,-0.0154439,-0.0050351,-0.0153637,-0
 .0897629,0.0748193,0.01219,-0.0013185,-0.0675622,-0.2732077,0.0087292,
 0.004033,0.008584,-0.1438545,0.0471693,-0.0541424,0.0037859,-0.0384991
 ,-0.000158,0.0091968,0.002757,0.0092802,0.1375897,1.213765,-0.5135955,
 0.0315746,-0.3507162,1.4528171,-0.0843191,0.020865,-0.0840147,0.171265
 9,-1.0434859,0.539786,-0.0340097,0.2318128,-0.713468,0.0263972,-0.0136
 632,0.0257591,-0.3073942,-0.1030116,-0.1922577,0.0130815,-0.1111215,-0
 .1457109,0.0137055,0.0076927,0.0139137,0.0574083,0.0465909,-0.0417108,
 0.0029466,-0.073076,-0.0364314,0.0113655,0.005025,0.0113028,0.1321615,
 -0.0804449,0.0037109,0.0002848,-0.0077579,0.0717138,0.0048125,0.001010
 7,0.0047889,0.1439181,0.0271695,0.0629116,-0.0039474,0.0677094,-0.0292
 151,0.0107434,-0.0042495,0.0107159,0.1341001,-0.7694813,-0.175053,0.01
 33225,-0.1101273,-0.0261639,-0.0007674,0.0089072,-0.0006555,-0.0419684
 \Polar=126.2655492,-7.9462346,110.4150447,0.3582555,-3.854419,52.16424
 26\PG=C01 [X(C7H5Cl1O1)]\NImag=0\\0.65655706,0.00878006,0.72655991,-0.
 00174018,-0.03891105,0.14166679,-0.30150792,-0.03484345,0.00284251,0.6
 3975860,0.01581453,-0.12112561,0.00386999,0.02353201,0.62411642,-0.000
 51123,0.00398353,-0.06240249,-0.00269774,-0.03268030,0.13339479,-0.022
 61949,-0.03038008,0.00207404,-0.14572034,-0.07856050,0.00538874,0.4982
 9263,-0.07658088,0.03014015,-0.00144989,-0.04594268,-0.25130563,0.0126
 1452,-0.01415294,0.61723825,0.00513342,-0.00155377,0.00573826,0.003230
 33,0.01268648,-0.06317132,0.00009849,-0.03245363,0.12868297,-0.0497083
 4,0.02785336,-0.00174277,0.05541885,0.02449443,-0.00172586,-0.15455082
 ,0.05461856,-0.00340911,0.68500988,0.02797253,-0.01808761,0.00082494,-
 0.01557294,-0.05058672,0.00397797,0.11633610,-0.27350463,0.01364818,0.
 04457584,0.71227126,-0.00175114,0.00082582,-0.00472392,0.00092569,0.00
 388866,0.00871740,-0.00749374,0.01378528,-0.06431276,-0.00419820,-0.03
 871348,0.13156026,0.06394336,-0.02114609,0.00127302,-0.04377304,-0.025
 01793,0.00174292,-0.03664081,0.07694115,-0.00499923,-0.33329655,-0.042
 46262,0.00341999,0.67787486,0.02590634,-0.06132077,0.00448825,-0.02852
 178,-0.01727052,0.00087719,0.02221409,0.03838260,-0.00223713,0.0261733
 8,-0.13020441,0.00449617,-0.03337572,0.71524640,-0.00184187,0.00459357
 ,0.00705070,0.00197457,0.00086987,-0.00504049,-0.00137543,-0.00236045,
 0.00548858,-0.00112421,0.00465002,-0.06170055,0.00099982,-0.03815384,0
 .14030360,-0.19155605,0.12991279,-0.00831446,-0.02963496,0.02509189,-0
 .00157615,0.00203553,0.00397222,-0.00027883,-0.02394216,-0.03229586,0.
 00220894,-0.17646767,-0.11741916,0.00802802,0.74762461,0.06637473,-0.2
 7602191,0.01389349,0.06767379,0.02732841,-0.00140375,0.00604097,-0.069
 48002,0.00425375,-0.07589504,0.03236104,-0.00146667,-0.05291677,-0.284
 19278,0.01478313,-0.00063132,0.65533054,-0.00410753,0.01375074,-0.0648
 0980,-0.00439466,-0.00130844,0.00851197,-0.00041656,0.00425819,-0.0053
 0215,0.00509523,-0.00156361,0.00773137,0.00375799,0.01492750,-0.063670
 57,-0.00133994,-0.03473543,0.13290540,-0.00081709,0.00084462,-0.000056
 18,-0.00143698,0.00289692,-0.00017495,0.00886508,0.01653319,-0.0011082
 0,-0.12094851,-0.12078275,0.00818520,-0.00989113,-0.02805083,0.0018870
 0,-0.00524622,0.00105697,-0.00004280,0.12756246,0.00088306,0.00035704,
 -0.00008851,0.00392374,-0.00294664,0.00058928,-0.01474178,-0.01962860,
 0.00151861,-0.11767720,-0.27549864,0.01608852,0.00204730,0.00418134,-0
 .00005020,0.00066798,0.00166282,0.00034629,0.12662678,0.29039856,-0.00
 005877,-0.00008835,-0.00094276,-0.00024270,0.00059137,0.00604498,0.000
 96185,0.00144911,0.00272257,0.00797980,0.01609507,-0.03754033,-0.00010
 556,0.00001719,0.00349000,-0.00001703,0.00034540,0.00689343,-0.0086120
 9,-0.01784202,0.02636798,-0.03479327,0.03501352,-0.00223866,-0.0958039
 0,-0.01269266,0.00089155,0.03226564,-0.00110805,0.00000177,-0.00054164
 ,-0.00738230,0.00050454,-0.00181500,-0.00052471,0.00003598,-0.00554049
 ,-0.00398920,0.00029635,0.00080242,-0.00179558,0.00011798,0.95225027,0
 .02166392,0.00106298,-0.00006461,0.02596364,-0.18536494,0.00745270,-0.
 00276404,-0.03333802,0.00222453,-0.00392995,-0.00186838,0.00054584,-0.
 00271584,-0.00106435,-0.00000269,-0.00459799,0.00633913,0.00015348,0.0
 0060020,-0.00000490,0.00002875,-0.03054610,0.52825034,-0.00135351,-0.0
 0009433,0.00082867,-0.00166615,0.00753613,-0.07242966,0.00010990,0.002
 21936,0.00001671,0.00027568,0.00055428,0.00621735,0.00018129,-0.000007
 65,-0.00119734,0.00033555,0.00015275,0.00850096,-0.00004051,0.00003391
 ,0.00044609,0.00028359,-0.02267817,0.18584648,0.01089052,0.00227826,-0
 .00016799,-0.04267179,0.05157694,-0.00327639,-0.01627160,-0.00888467,0
 .00062225,0.00065158,0.00126876,-0.00008746,-0.00128540,-0.00093005,0.
 00006503,-0.00037037,0.00408689,-0.00027524,-0.00010132,0.00069948,-0.
 00004603,-0.71850303,0.09408833,-0.00472796,0.81207479,-0.00246898,-0.
 00736598,0.00069645,0.04860190,-0.00051098,0.00108156,-0.00029379,0.00
 591452,-0.00045614,0.00081966,0.00079527,-0.00009981,0.00065109,0.0003
 5714,-0.00001108,0.00270053,-0.00055248,-0.00011287,-0.00022493,0.0001
 0554,-0.00000786,0.10723255,-0.12047696,0.00367047,-0.13439349,0.10948
 618,0.00014544,0.00068558,0.00302894,-0.00308016,0.00107576,0.01743777
 ,0.00005462,-0.00043587,-0.00095027,-0.00005743,-0.00010144,-0.0006852
 5,-0.00003981,-0.00000755,0.00021167,-0.00018261,-0.00011633,-0.002163
 01,0.00001508,-0.00000981,-0.00001863,-0.00559553,0.00370030,-0.061527
 21,0.00709430,-0.00545950,0.02268832,0.00097484,0.00279255,-0.00018969
 ,0.00455456,0.00813895,-0.00051074,-0.00086440,0.00207557,-0.00012928,
 0.00057086,0.00045877,-0.00003444,0.00006482,0.00001645,-0.00000073,0.
 00036343,-0.00026035,0.00001577,-0.00010795,0.00011034,-0.00000784,-0.
 11747820,-0.10085122,0.00679825,-0.05380989,-0.02176779,0.00160594,0.1
 6533704,-0.00267767,-0.00041003,-0.00004945,-0.01911018,-0.02400193,0.
 00276066,0.00574192,-0.00300553,0.00036949,-0.00162929,-0.00097179,-0.
 00001465,0.00006920,0.00027064,-0.00000365,0.00091529,0.00025648,-0.00
 003779,0.00025965,-0.00044773,0.00000650,-0.08842023,-0.19262021,0.009
 04339,-0.00665545,0.02089041,-0.00005563,0.10964933,0.19934102,0.00017
 189,-0.00006162,-0.00124330,0.00129235,0.00270248,0.01691275,-0.000371
 83,0.00037826,0.00275370,0.00010377,-0.00001997,-0.00125479,-0.0000042
 5,-0.00000338,0.00021836,-0.00006191,-0.00003541,-0.00028386,-0.000017
 69,0.00000682,-0.00034049,0.00597363,0.00906744,-0.05945811,0.00060795
 ,-0.00002073,0.01982756,-0.00757089,-0.01198336,0.02264072,-0.11818773
 ,-0.11238892,0.00762137,-0.01113199,-0.02695700,0.00181699,-0.00431561
 ,0.00128247,-0.00006223,-0.00072305,0.00060446,-0.00004049,-0.00119384
 ,0.00337268,-0.00020512,0.01188962,0.01624576,-0.00109231,0.00005456,-
 0.00004448,0.00000142,-0.00125626,-0.00463824,0.00029945,0.00140853,0.
 00096477,-0.00006480,0.00034482,0.00186221,-0.00012389,0.12324181,-0.1
 1155239,-0.27050578,0.01568539,-0.00231071,0.00203221,0.00008920,0.000
 24043,0.00096125,0.00032453,0.00073893,0.00031782,-0.00008645,0.003947
 29,-0.00294441,0.00064302,-0.01459053,-0.01799948,0.00151583,-0.000077
 47,-0.00006523,-0.00003668,0.00499398,-0.00129498,-0.00022807,-0.00156
 627,0.00069981,0.00002311,-0.00004113,0.00041952,-0.00002891,0.1204308
 8,0.28840570,0.00756567,0.01568736,-0.03839941,0.00018556,0.00014439,0
 .00329197,0.00000679,0.00032235,0.00585293,-0.00004945,-0.00008630,-0.
 00095885,-0.00024311,0.00064438,0.00685974,0.00094918,0.00144658,0.004
 30582,0.00000362,-0.00003677,-0.00061931,-0.00033818,-0.00020612,-0.00
 455521,0.00010287,0.00001720,0.00099267,0.00000193,-0.00003328,-0.0000
 1666,-0.00819074,-0.01764821,0.02708201,-0.01208461,-0.00290225,0.0002
 2526,0.00072972,0.00310953,-0.00019155,0.00076991,0.00004867,-0.000006
 16,0.00087462,-0.00274583,0.00019531,-0.01003993,0.00213602,-0.0001123
 9,-0.33855672,-0.01007063,0.00134393,-0.00052102,0.00021542,-0.0000126
 4,-0.00027761,-0.00098204,0.00006665,-0.00046741,0.00049835,-0.0000324
 9,0.00003903,0.00008574,-0.00000557,0.00075889,0.00015237,-0.00002089,
 0.35812432,0.02818617,0.00497698,-0.00021611,0.00213703,-0.00414616,0.
 00074340,0.00002551,-0.00160488,0.00006728,-0.00211030,-0.00452352,0.0
 0076569,-0.02885947,0.00362174,0.00001779,-0.01020004,-0.05905820,0.00
 154055,-0.00129831,0.00010077,0.00000858,0.00094561,0.00103082,-0.0000
 4151,0.00051152,-0.00064348,0.00002491,-0.00003213,-0.00010264,0.00001
 125,-0.00045864,0.00093115,-0.00033047,0.01065694,0.05830523,-0.001832
 95,-0.00014638,0.00268051,-0.00012713,0.00074111,0.00710548,-0.0000047
 3,0.00006733,-0.00059159,0.00015342,0.00076698,0.00691985,0.00193950,-
 0.00005161,0.00291327,0.00135257,0.00154022,-0.03623687,0.00008754,0.0
 0000517,0.00018599,-0.00006113,-0.00003714,0.00043775,-0.00003326,0.00
 002494,-0.00025059,0.00000220,0.00001097,0.00006583,0.00001953,-0.0003
 3182,-0.00405417,-0.00145078,-0.00220529,0.02550229,-0.00053587,-0.003
 33322,0.00023762,-0.00079859,-0.00075081,0.00004949,-0.00413600,-0.000
 98429,0.00009069,-0.01191838,0.02805102,-0.00182051,-0.13374652,0.1226
 7022,-0.00790885,0.01194575,-0.01396774,0.00090809,0.00097083,-0.00030
 381,0.00000881,-0.00003619,-0.00008122,0.00000287,0.00010189,0.0000416
 6,-0.00000243,0.00002068,0.00009651,-0.00000637,0.00040472,-0.00074324
 ,0.00004807,0.00070555,0.00055267,-0.00004680,0.13837922,-0.00367148,-
 0.00355714,0.00071144,-0.00084571,0.00029699,-0.00007911,-0.00098323,0
 .00163958,0.00038030,-0.00287890,0.00449900,-0.00000745,0.12287893,-0.
 26194575,0.01447655,0.01663426,-0.01730515,0.00140749,0.00029484,0.000
 65580,-0.00031290,-0.00007332,-0.00013493,-0.00006556,0.00018098,-0.00
 001781,0.00001660,0.00002167,0.00008046,-0.00000289,0.00082965,-0.0009
 1987,0.00005295,-0.00022189,0.00090341,-0.00031390,-0.13196755,0.27574
 650,0.00025993,0.00071066,0.00701609,0.00005568,-0.00007918,-0.0009199
 1,0.00009086,0.00038016,0.00732144,0.00022700,-0.00007667,0.00429711,-
 0.00792271,0.01447706,-0.04005105,-0.00111786,0.00147599,0.00442493,-0
 .00003078,-0.00031161,-0.00404084,0.00000225,-0.00006553,-0.00112480,-
 0.00001157,0.00001692,0.00023866,-0.00000140,-0.00000314,0.00003702,-0
 .00005603,0.00005642,-0.00009607,0.00000452,-0.00031566,-0.00382536,0.
 00848424,-0.01624817,0.02689877,-0.00055540,-0.00248115,0.00017612,-0.
 02798222,-0.01067630,0.00077491,-0.15710973,-0.00781833,0.00081609,-0.
 04689634,0.00197479,-0.00001369,0.00626685,0.00633307,-0.00042180,-0.0
 0254431,-0.00374804,0.00025168,0.00081486,-0.00061125,0.00003282,-0.00
 927274,0.00879055,-0.00056510,0.00835350,-0.00236153,0.00013988,-0.000
 00964,-0.00018704,0.00001280,-0.00129448,0.00037785,-0.00002133,-0.000
 05475,-0.00005657,0.00000202,-0.00135709,-0.00019826,0.00001587,0.2316
 4150,0.00137005,-0.00470222,0.00060967,-0.02468467,0.00348510,-0.00000
 686,-0.00872266,-0.04240904,0.00122752,0.02484652,0.00500131,-0.000007
 48,-0.00004051,-0.00311687,0.00054796,-0.00016006,0.00133161,-0.000141
 91,0.00132110,0.00112987,-0.00025416,-0.00165353,-0.00051559,-0.000095
 01,-0.00226123,-0.00868118,0.00065987,-0.00031103,0.00030133,-0.000009
 98,-0.00110559,-0.00003771,0.00002593,0.00001959,0.00020877,-0.0000705
 8,0.00071980,0.00005891,-0.00001723,0.01066221,0.04794570,-0.00007919,
 0.00061826,0.00451172,0.00170185,-0.00003833,0.00254676,0.00087700,0.0
 0122527,-0.02424907,-0.00152787,0.00004401,0.00573310,0.00000014,0.000
 53343,0.00512407,0.00001453,-0.00013372,-0.00080763,-0.00009522,-0.000
 24968,-0.00264870,0.00012587,-0.00011878,-0.00200168,0.00013350,0.0006
 6044,0.00116939,0.00002093,-0.00001006,0.00014127,0.00007684,0.0000226
 3,0.00031453,-0.00000319,-0.00007041,-0.00085238,-0.00004491,-0.000015
 33,-0.00017599,-0.00120028,-0.00246775,0.01119461\\0.00002328,0.000020
 07,-0.00000152,-0.00013896,-0.00010219,0.00000232,0.00016171,0.0000211
 3,-0.00000214,-0.00003742,0.00007952,-0.00000487,0.00003538,0.00005785
 ,-0.00000397,-0.00001918,-0.00008218,0.00000576,-0.00000869,0.00000120
 ,0.,-0.00001923,0.00004758,0.00001335,0.00001133,0.00004281,-0.0000086
 0,-0.00003772,-0.00000889,-0.00000508,-0.00001287,-0.00002108,0.000001
 32,0.00003854,-0.00004705,0.00000305,0.00003963,0.00000756,-0.00000062
 ,-0.00003581,-0.00001634,0.00000102\\\@


 IF YOU PERCEIVE THAT THERE ARE FOUR POSSIBLE WAYS IN
 WHICH A PROCEDURE CAN GO WRONG AND CIRCUMVENT THESE, 
 THEN A FIFTH WAY WILL DEVELOP.

                              -- MURPHY'S TWELFTH LAW
 Job cpu time:       0 days  0 hours 19 minutes 13.5 seconds.
 File lengths (MBytes):  RWF=     85 Int=      0 D2E=      0 Chk=      5 Scr=      1
 Normal termination of Gaussian 09 at Tue Apr 23 11:22:05 2024.
