 Entering Gaussian System, Link 0=g09
 Initial command:
 /cm/shared/apps/gaussian/g09revD.01/g09/l1.exe "//home/sweav003/CHB/validation/G09-methylchlorosilanes7_Suginome.com.o9822886.tmp/Gau-167820.inp" -scrdir="//home/sweav003/CHB/validation/G09-methylchlorosilanes7_Suginome.com.o9822886.tmp/"
 Entering Link 1 = /cm/shared/apps/gaussian/g09revD.01/g09/l1.exe PID=    167821.
  
 Copyright (c) 1988,1990,1992,1993,1995,1998,2003,2009,2013,
            Gaussian, Inc.  All Rights Reserved.
  
 This is part of the Gaussian(R) 09 program.  It is based on
 the Gaussian(R) 03 system (copyright 2003, Gaussian, Inc.),
 the Gaussian(R) 98 system (copyright 1998, Gaussian, Inc.),
 the Gaussian(R) 94 system (copyright 1995, Gaussian, Inc.),
 the Gaussian 92(TM) system (copyright 1992, Gaussian, Inc.),
 the Gaussian 90(TM) system (copyright 1990, Gaussian, Inc.),
 the Gaussian 88(TM) system (copyright 1988, Gaussian, Inc.),
 the Gaussian 86(TM) system (copyright 1986, Carnegie Mellon
 University), and the Gaussian 82(TM) system (copyright 1983,
 Carnegie Mellon University). Gaussian is a federally registered
 trademark of Gaussian, Inc.
  
 This software contains proprietary and confidential information,
 including trade secrets, belonging to Gaussian, Inc.
  
 This software is provided under written license and may be
 used, copied, transmitted, or stored only in accord with that
 written license.
  
 The following legend is applicable only to US Government
 contracts under FAR:
  
                    RESTRICTED RIGHTS LEGEND
  
 Use, reproduction and disclosure by the US Government is
 subject to restrictions as set forth in subparagraphs (a)
 and (c) of the Commercial Computer Software - Restricted
 Rights clause in FAR 52.227-19.
  
 Gaussian, Inc.
 340 Quinnipiac St., Bldg. 40, Wallingford CT 06492
  
  
 ---------------------------------------------------------------
 Warning -- This program may not be used in any manner that
 competes with the business of Gaussian, Inc. or will provide
 assistance to any competitor of Gaussian, Inc.  The licensee
 of this program is prohibited from giving any competitor of
 Gaussian, Inc. access to this program.  By using this program,
 the user acknowledges that Gaussian, Inc. is engaged in the
 business of creating and licensing software in the field of
 computational chemistry and represents and warrants to the
 licensee that it is not a competitor of Gaussian, Inc. and that
 it will not use this program in any manner prohibited above.
 ---------------------------------------------------------------
  

 Cite this work as:
 Gaussian 09, Revision D.01,
 M. J. Frisch, G. W. Trucks, H. B. Schlegel, G. E. Scuseria, 
 M. A. Robb, J. R. Cheeseman, G. Scalmani, V. Barone, B. Mennucci, 
 G. A. Petersson, H. Nakatsuji, M. Caricato, X. Li, H. P. Hratchian, 
 A. F. Izmaylov, J. Bloino, G. Zheng, J. L. Sonnenberg, M. Hada, 
 M. Ehara, K. Toyota, R. Fukuda, J. Hasegawa, M. Ishida, T. Nakajima, 
 Y. Honda, O. Kitao, H. Nakai, T. Vreven, J. A. Montgomery, Jr., 
 J. E. Peralta, F. Ogliaro, M. Bearpark, J. J. Heyd, E. Brothers, 
 K. N. Kudin, V. N. Staroverov, T. Keith, R. Kobayashi, J. Normand, 
 K. Raghavachari, A. Rendell, J. C. Burant, S. S. Iyengar, J. Tomasi, 
 M. Cossi, N. Rega, J. M. Millam, M. Klene, J. E. Knox, J. B. Cross, 
 V. Bakken, C. Adamo, J. Jaramillo, R. Gomperts, R. E. Stratmann, 
 O. Yazyev, A. J. Austin, R. Cammi, C. Pomelli, J. W. Ochterski, 
 R. L. Martin, K. Morokuma, V. G. Zakrzewski, G. A. Voth, 
 P. Salvador, J. J. Dannenberg, S. Dapprich, A. D. Daniels, 
 O. Farkas, J. B. Foresman, J. V. Ortiz, J. Cioslowski, 
 and D. J. Fox, Gaussian, Inc., Wallingford CT, 2013.
 
 ******************************************
 Gaussian 09:  ES64L-G09RevD.01 24-Apr-2013
                 9-Jan-2023 
 ******************************************
 %nprocshared=20
 Will use up to   20 processors via shared memory.
 %mem=4GB
 %chk=methylchlorosilanes7_Suginome.chk
 ----------------------------------------------------------------------
 # opt freq b3lyp/6-311+g(d,p) geom=connectivity pop=(hirshfeld,chelpg,
 mbs,npa)
 ----------------------------------------------------------------------
 1/14=-1,18=20,19=15,26=3,38=1,57=2/1,3;
 2/9=110,12=2,17=6,18=5,40=1/2;
 3/5=4,6=6,7=111,11=2,16=1,25=1,30=1,71=1,74=-5/1,2,3;
 4//1;
 5/5=2,38=5/2;
 6/7=2,8=2,9=2,10=2,15=8,20=3,27=100,28=1,40=-1,79=1/1,2,7;
 7//1,2,3,16;
 1/14=-1,18=20,19=15,26=3/3(2);
 2/9=110/2;
 99//99;
 2/9=110/2;
 3/5=4,6=6,7=111,11=2,16=1,25=1,30=1,71=1,74=-5/1,2,3;
 4/5=5,16=3,69=1/1;
 5/5=2,38=5/2;
 7//1,2,3,16;
 1/14=-1,18=20,19=15,26=3/3(-5);
 2/9=110/2;
 6/7=2,8=2,9=2,10=2,15=8,19=2,20=3,27=100,28=1,40=-1,79=1/1,2,7;
 99/9=1/99;
 -------------------
 Title Card Required
 -------------------
 Symbolic Z-matrix:
 Charge =  0 Multiplicity = 1
 Si                    1.51487  -0.49512  -0.42684 
 Cl                    2.2349    0.52334  -2.19033 
 C                     2.16154   0.41918   1.15729 
 H                     1.80488   1.42799   1.15742 
 H                     1.80486  -0.08533   2.03087 
 H                     3.23154   0.41917   1.1573 
 C                    -0.42513  -0.4951   -0.42686 
 H                    -0.78179  -0.99938  -1.30058 
 H                    -0.78178   0.51371  -0.42673 
 C                     2.16152  -2.32418  -0.42708 
 H                     3.23152  -2.32419  -0.42707 
 H                    -0.78181  -0.99962   0.44672 
 C                     1.64819  -3.04997  -1.68458 
 H                     2.20415  -2.72164  -2.53782 
 H                     1.77231  -4.10573  -1.56269 
 H                     0.61145  -2.82681  -1.82696 
 C                     1.64817  -3.0503    0.83023 
 H                     2.01945  -4.05378   0.83914 
 H                     1.99006  -2.53573   1.70386 
 H                     0.57832  -3.06591   0.82126 
 

 GradGradGradGradGradGradGradGradGradGradGradGradGradGradGradGradGradGrad
 Berny optimization.
 Initialization pass.
                           ----------------------------
                           !    Initial Parameters    !
                           ! (Angstroms and Degrees)  !
 --------------------------                            --------------------------
 ! Name  Definition              Value          Derivative Info.                !
 --------------------------------------------------------------------------------
 ! R1    R(1,2)                  2.16           estimate D2E/DX2                !
 ! R2    R(1,3)                  1.94           estimate D2E/DX2                !
 ! R3    R(1,7)                  1.94           estimate D2E/DX2                !
 ! R4    R(1,10)                 1.94           estimate D2E/DX2                !
 ! R5    R(3,4)                  1.07           estimate D2E/DX2                !
 ! R6    R(3,5)                  1.07           estimate D2E/DX2                !
 ! R7    R(3,6)                  1.07           estimate D2E/DX2                !
 ! R8    R(7,8)                  1.07           estimate D2E/DX2                !
 ! R9    R(7,9)                  1.07           estimate D2E/DX2                !
 ! R10   R(7,12)                 1.07           estimate D2E/DX2                !
 ! R11   R(10,11)                1.07           estimate D2E/DX2                !
 ! R12   R(10,13)                1.54           estimate D2E/DX2                !
 ! R13   R(10,17)                1.54           estimate D2E/DX2                !
 ! R14   R(13,14)                1.07           estimate D2E/DX2                !
 ! R15   R(13,15)                1.07           estimate D2E/DX2                !
 ! R16   R(13,16)                1.07           estimate D2E/DX2                !
 ! R17   R(17,18)                1.07           estimate D2E/DX2                !
 ! R18   R(17,19)                1.07           estimate D2E/DX2                !
 ! R19   R(17,20)                1.07           estimate D2E/DX2                !
 ! A1    A(2,1,3)              109.4712         estimate D2E/DX2                !
 ! A2    A(2,1,7)              109.4712         estimate D2E/DX2                !
 ! A3    A(2,1,10)             109.4712         estimate D2E/DX2                !
 ! A4    A(3,1,7)              109.4712         estimate D2E/DX2                !
 ! A5    A(3,1,10)             109.4712         estimate D2E/DX2                !
 ! A6    A(7,1,10)             109.4712         estimate D2E/DX2                !
 ! A7    A(1,3,4)              109.4712         estimate D2E/DX2                !
 ! A8    A(1,3,5)              109.4712         estimate D2E/DX2                !
 ! A9    A(1,3,6)              109.4712         estimate D2E/DX2                !
 ! A10   A(4,3,5)              109.4712         estimate D2E/DX2                !
 ! A11   A(4,3,6)              109.4712         estimate D2E/DX2                !
 ! A12   A(5,3,6)              109.4712         estimate D2E/DX2                !
 ! A13   A(1,7,8)              109.4712         estimate D2E/DX2                !
 ! A14   A(1,7,9)              109.4712         estimate D2E/DX2                !
 ! A15   A(1,7,12)             109.4712         estimate D2E/DX2                !
 ! A16   A(8,7,9)              109.4712         estimate D2E/DX2                !
 ! A17   A(8,7,12)             109.4712         estimate D2E/DX2                !
 ! A18   A(9,7,12)             109.4712         estimate D2E/DX2                !
 ! A19   A(1,10,11)            109.4712         estimate D2E/DX2                !
 ! A20   A(1,10,13)            109.4712         estimate D2E/DX2                !
 ! A21   A(1,10,17)            109.4712         estimate D2E/DX2                !
 ! A22   A(11,10,13)           109.4712         estimate D2E/DX2                !
 ! A23   A(11,10,17)           109.4712         estimate D2E/DX2                !
 ! A24   A(13,10,17)           109.4712         estimate D2E/DX2                !
 ! A25   A(10,13,14)           109.4712         estimate D2E/DX2                !
 ! A26   A(10,13,15)           109.4712         estimate D2E/DX2                !
 ! A27   A(10,13,16)           109.4712         estimate D2E/DX2                !
 ! A28   A(14,13,15)           109.4713         estimate D2E/DX2                !
 ! A29   A(14,13,16)           109.4712         estimate D2E/DX2                !
 ! A30   A(15,13,16)           109.4712         estimate D2E/DX2                !
 ! A31   A(10,17,18)           109.4712         estimate D2E/DX2                !
 ! A32   A(10,17,19)           109.4712         estimate D2E/DX2                !
 ! A33   A(10,17,20)           109.4712         estimate D2E/DX2                !
 ! A34   A(18,17,19)           109.4713         estimate D2E/DX2                !
 ! A35   A(18,17,20)           109.4712         estimate D2E/DX2                !
 ! A36   A(19,17,20)           109.4712         estimate D2E/DX2                !
 ! D1    D(2,1,3,4)             60.0            estimate D2E/DX2                !
 ! D2    D(2,1,3,5)            180.0            estimate D2E/DX2                !
 ! D3    D(2,1,3,6)            -60.0            estimate D2E/DX2                !
 ! D4    D(7,1,3,4)            -60.0            estimate D2E/DX2                !
 ! D5    D(7,1,3,5)             60.0            estimate D2E/DX2                !
 ! D6    D(7,1,3,6)            180.0            estimate D2E/DX2                !
 ! D7    D(10,1,3,4)           180.0            estimate D2E/DX2                !
 ! D8    D(10,1,3,5)           -60.0            estimate D2E/DX2                !
 ! D9    D(10,1,3,6)            60.0            estimate D2E/DX2                !
 ! D10   D(2,1,7,8)             60.0            estimate D2E/DX2                !
 ! D11   D(2,1,7,9)            -60.0            estimate D2E/DX2                !
 ! D12   D(2,1,7,12)           180.0            estimate D2E/DX2                !
 ! D13   D(3,1,7,8)            180.0            estimate D2E/DX2                !
 ! D14   D(3,1,7,9)             60.0            estimate D2E/DX2                !
 ! D15   D(3,1,7,12)           -60.0            estimate D2E/DX2                !
 ! D16   D(10,1,7,8)           -60.0            estimate D2E/DX2                !
 ! D17   D(10,1,7,9)           180.0            estimate D2E/DX2                !
 ! D18   D(10,1,7,12)           60.0            estimate D2E/DX2                !
 ! D19   D(2,1,10,11)           60.0            estimate D2E/DX2                !
 ! D20   D(2,1,10,13)          -60.0            estimate D2E/DX2                !
 ! D21   D(2,1,10,17)          180.0            estimate D2E/DX2                !
 ! D22   D(3,1,10,11)          -60.0            estimate D2E/DX2                !
 ! D23   D(3,1,10,13)          180.0            estimate D2E/DX2                !
 ! D24   D(3,1,10,17)           60.0            estimate D2E/DX2                !
 ! D25   D(7,1,10,11)         -180.0            estimate D2E/DX2                !
 ! D26   D(7,1,10,13)           60.0            estimate D2E/DX2                !
 ! D27   D(7,1,10,17)          -60.0            estimate D2E/DX2                !
 ! D28   D(1,10,13,14)          75.1962         estimate D2E/DX2                !
 ! D29   D(1,10,13,15)        -164.8038         estimate D2E/DX2                !
 ! D30   D(1,10,13,16)         -44.8038         estimate D2E/DX2                !
 ! D31   D(11,10,13,14)        -44.8038         estimate D2E/DX2                !
 ! D32   D(11,10,13,15)         75.1962         estimate D2E/DX2                !
 ! D33   D(11,10,13,16)       -164.8038         estimate D2E/DX2                !
 ! D34   D(17,10,13,14)       -164.8038         estimate D2E/DX2                !
 ! D35   D(17,10,13,15)        -44.8038         estimate D2E/DX2                !
 ! D36   D(17,10,13,16)         75.1962         estimate D2E/DX2                !
 ! D37   D(1,10,17,18)        -178.9774         estimate D2E/DX2                !
 ! D38   D(1,10,17,19)         -58.9774         estimate D2E/DX2                !
 ! D39   D(1,10,17,20)          61.0226         estimate D2E/DX2                !
 ! D40   D(11,10,17,18)        -58.9774         estimate D2E/DX2                !
 ! D41   D(11,10,17,19)         61.0226         estimate D2E/DX2                !
 ! D42   D(11,10,17,20)       -178.9774         estimate D2E/DX2                !
 ! D43   D(13,10,17,18)         61.0226         estimate D2E/DX2                !
 ! D44   D(13,10,17,19)       -178.9774         estimate D2E/DX2                !
 ! D45   D(13,10,17,20)        -58.9774         estimate D2E/DX2                !
 --------------------------------------------------------------------------------
 Trust Radius=3.00D-01 FncErr=1.00D-07 GrdErr=1.00D-06
 Number of steps in this run=    110 maximum allowed number of steps=    120.
 GradGradGradGradGradGradGradGradGradGradGradGradGradGradGradGradGradGrad

                          Input orientation:                          
 ---------------------------------------------------------------------
 Center     Atomic      Atomic             Coordinates (Angstroms)
 Number     Number       Type             X           Y           Z
 ---------------------------------------------------------------------
      1         14           0        1.514874   -0.495123   -0.426840
      2         17           0        2.234903    0.523339   -2.190329
      3          6           0        2.161536    0.419183    1.157292
      4          1           0        1.804880    1.427993    1.157424
      5          1           0        1.804855   -0.085332    2.030873
      6          1           0        3.231536    0.419171    1.157303
      7          6           0       -0.425126   -0.495101   -0.426858
      8          1           0       -0.781790   -0.999383   -1.300580
      9          1           0       -0.781781    0.513709   -0.426727
     10          6           0        2.161520   -2.324179   -0.427078
     11          1           0        3.231520   -2.324191   -0.427067
     12          1           0       -0.781807   -0.999617    0.446722
     13          6           0        1.648191   -3.049969   -1.684584
     14          1           0        2.204151   -2.721645   -2.537821
     15          1           0        1.772307   -4.105732   -1.562690
     16          1           0        0.611452   -2.826811   -1.826964
     17          6           0        1.648167   -3.050305    0.830225
     18          1           0        2.019446   -4.053785    0.839142
     19          1           0        1.990055   -2.535735    1.703856
     20          1           0        0.578318   -3.065910    0.821258
 ---------------------------------------------------------------------
                    Distance matrix (angstroms):
                    1          2          3          4          5
     1  Si   0.000000
     2  Cl   2.160000   0.000000
     3  C    1.940000   3.350045   0.000000
     4  H    2.508459   3.494391   1.070000   0.000000
     5  H    2.508459   4.286487   1.070000   1.747303   0.000000
     6  H    2.508459   3.494391   1.070000   1.747303   1.747303
     7  C    1.940000   3.350045   3.168007   3.343825   3.343825
     8  H    2.508459   3.494391   4.088598   4.315646   4.315646
     9  H    2.508459   3.494391   3.343825   3.168007   3.617918
    10  C    1.940000   3.350045   3.168007   4.088598   3.343825
    11  H    2.508459   3.494391   3.343825   4.315646   3.617918
    12  H    2.508459   4.286487   3.343825   3.617918   3.168007
    13  C    2.850778   3.656301   4.513845   5.306006   4.755863
    14  H    3.144637   3.263681   4.849791   5.570793   5.289853
    15  H    3.793801   4.694276   5.293832   6.166214   5.392436
    16  H    2.865884   3.740472   4.673866   5.332373   4.880863
    17  C    2.850778   4.715817   3.522480   4.492969   3.202681
    18  H    3.810693   5.493103   4.486519   5.495200   4.149082
    19  H    2.988270   4.958080   3.009930   4.005498   2.479055
    20  H    3.007296   4.969570   3.842573   4.670399   3.442587
                    6          7          8          9         10
     6  H    0.000000
     7  C    4.088598   0.000000
     8  H    4.915309   1.070000   0.000000
     9  H    4.315646   1.070000   1.747303   0.000000
    10  C    3.343825   3.168007   3.343825   4.088598   0.000000
    11  H    3.168007   4.088598   4.315646   4.915309   1.070000
    12  H    4.315646   1.070000   1.747303   1.747303   3.343825
    13  C    4.755863   3.522480   3.202681   4.492969   1.540000
    14  H    4.957235   4.040638   3.662347   4.882624   2.148263
    15  H    5.477450   4.376698   4.030077   5.399353   2.148263
    16  H    5.129044   2.910612   2.357476   3.880829   2.148263
    17  C    3.827702   3.522480   3.827702   4.492969   1.540000
    18  H    4.645183   4.499213   4.664194   5.505569   2.148263
    19  H    3.251379   3.812772   4.366937   4.639134   2.148263
    20  H    4.392981   3.028820   3.259236   4.027531   2.148263
                   11         12         13         14         15
    11  H    0.000000
    12  H    4.315646   0.000000
    13  C    2.148263   3.827702   0.000000
    14  H    2.380911   4.559476   1.070000   0.000000
    15  H    2.567651   4.495463   1.070000   1.747303   0.000000
    16  H    3.012822   3.232562   1.070000   1.747303   1.747303
    17  C    2.148263   3.202681   2.514809   3.429412   2.618278
    18  H    2.462499   4.162806   2.741290   3.634913   2.415072
    19  H    2.475241   3.409291   3.444246   4.251143   3.630788
    20  H    3.024557   2.501956   2.724725   3.747700   2.861826
                   16         17         18         19         20
    16  H    0.000000
    17  C    2.861011   0.000000
    18  H    3.255156   1.070000   0.000000
    19  H    3.801574   1.070000   1.747303   0.000000
    20  H    2.659200   1.070000   1.747303   1.747303   0.000000
 Stoichiometry    C5H13ClSi
 Framework group  C1[X(C5H13ClSi)]
 Deg. of freedom    54
 Full point group                 C1      NOp   1
 Largest Abelian subgroup         C1      NOp   1
 Largest concise Abelian subgroup C1      NOp   1
                         Standard orientation:                         
 ---------------------------------------------------------------------
 Center     Atomic      Atomic             Coordinates (Angstroms)
 Number     Number       Type             X           Y           Z
 ---------------------------------------------------------------------
      1         14           0       -0.338984    0.371436    0.069962
      2         17           0       -1.996993   -0.961526   -0.303961
      3          6           0       -0.654268    2.062895   -0.826232
      4          1           0       -1.555909    2.501714   -0.452894
      5          1           0        0.167061    2.723205   -0.641002
      6          1           0       -0.747849    1.896684   -1.879094
      7          6           0       -0.169314    0.672791    1.978887
      8          1           0        0.004580   -0.260127    2.473180
      9          1           0       -1.070955    1.111610    2.352226
     10          6           0        1.295767   -0.424179   -0.606932
     11          1           0        1.202186   -0.590390   -1.659793
     12          1           0        0.652015    1.333101    2.164118
     13          6           0        1.546044   -1.766884    0.104480
     14          1           0        0.877751   -2.506543   -0.284351
     15          1           0        2.556645   -2.076148   -0.062672
     16          1           0        1.377628   -1.650878    1.154756
     17          6           0        2.477866    0.526173   -0.340339
     18          1           0        3.376651    0.095359   -0.729549
     19          1           0        2.295717    1.465212   -0.819848
     20          1           0        2.582558    0.678259    0.713611
 ---------------------------------------------------------------------
 Rotational constants (GHZ):      1.9264349      1.2631684      1.0515277
 Standard basis: 6-311+G(d,p) (5D, 7F)
 There are   255 symmetry adapted cartesian basis functions of A   symmetry.
 There are   248 symmetry adapted basis functions of A   symmetry.
   248 basis functions,   387 primitive gaussians,   255 cartesian basis functions
    37 alpha electrons       37 beta electrons
       nuclear repulsion energy       468.9066894719 Hartrees.
 NAtoms=   20 NActive=   20 NUniq=   20 SFac= 1.00D+00 NAtFMM=   60 NAOKFM=F Big=F
 Integral buffers will be    131072 words long.
 Raffenetti 2 integral format.
 Two-electron integral symmetry is turned on.
 One-electron integrals computed using PRISM.
 NBasis=   248 RedAO= T EigKep=  3.91D-05  NBF=   248
 NBsUse=   248 1.00D-06 EigRej= -1.00D+00 NBFU=   248
 ExpMin= 3.31D-02 ExpMax= 1.06D+05 ExpMxC= 3.62D+03 IAcc=3 IRadAn=         5 AccDes= 0.00D+00
 Harris functional with IExCor=  402 and IRadAn=       5 diagonalized for initial guess.
 HarFok:  IExCor=  402 AccDes= 0.00D+00 IRadAn=         5 IDoV= 1 UseB2=F ITyADJ=14
 ICtDFT=  3500011 ScaDFX=  1.000000  1.000000  1.000000  1.000000
 FoFCou: FMM=F IPFlag=           0 FMFlag=      100000 FMFlg1=           0
         NFxFlg=           0 DoJE=T BraDBF=F KetDBF=T FulRan=T
         wScrn=  0.000000 ICntrl=     500 IOpCl=  0 I1Cent=   200000004 NGrid=           0
         NMat0=    1 NMatS0=      1 NMatT0=    0 NMatD0=    1 NMtDS0=    0 NMtDT0=    0
 Petite list used in FoFCou.
 Keep R1 ints in memory in canonical form, NReq=485288257.
 Requested convergence on RMS density matrix=1.00D-08 within 128 cycles.
 Requested convergence on MAX density matrix=1.00D-06.
 Requested convergence on             energy=1.00D-06.
 No special actions if energy rises.
 SCF Done:  E(RB3LYP) =  -948.246634175     A.U. after   12 cycles
            NFock= 12  Conv=0.29D-08     -V/T= 2.0026

 **********************************************************************

            Population analysis using the SCF density.

 **********************************************************************

 Orbital symmetries:
       Occupied  (A) (A) (A) (A) (A) (A) (A) (A) (A) (A) (A) (A)
                 (A) (A) (A) (A) (A) (A) (A) (A) (A) (A) (A) (A)
                 (A) (A) (A) (A) (A) (A) (A) (A) (A) (A) (A) (A)
                 (A)
       Virtual   (A) (A) (A) (A) (A) (A) (A) (A) (A) (A) (A) (A)
                 (A) (A) (A) (A) (A) (A) (A) (A) (A) (A) (A) (A)
                 (A) (A) (A) (A) (A) (A) (A) (A) (A) (A) (A) (A)
                 (A) (A) (A) (A) (A) (A) (A) (A) (A) (A) (A) (A)
                 (A) (A) (A) (A) (A) (A) (A) (A) (A) (A) (A) (A)
                 (A) (A) (A) (A) (A) (A) (A) (A) (A) (A) (A) (A)
                 (A) (A) (A) (A) (A) (A) (A) (A) (A) (A) (A) (A)
                 (A) (A) (A) (A) (A) (A) (A) (A) (A) (A) (A) (A)
                 (A) (A) (A) (A) (A) (A) (A) (A) (A) (A) (A) (A)
                 (A) (A) (A) (A) (A) (A) (A) (A) (A) (A) (A) (A)
                 (A) (A) (A) (A) (A) (A) (A) (A) (A) (A) (A) (A)
                 (A) (A) (A) (A) (A) (A) (A) (A) (A) (A) (A) (A)
                 (A) (A) (A) (A) (A) (A) (A) (A) (A) (A) (A) (A)
                 (A) (A) (A) (A) (A) (A) (A) (A) (A) (A) (A) (A)
                 (A) (A) (A) (A) (A) (A) (A) (A) (A) (A) (A) (A)
                 (A) (A) (A) (A) (A) (A) (A) (A) (A) (A) (A) (A)
                 (A) (A) (A) (A) (A) (A) (A) (A) (A) (A) (A) (A)
                 (A) (A) (A) (A) (A) (A) (A)
 The electronic state is 1-A.
 Alpha  occ. eigenvalues -- -101.52905 -66.13313 -10.17049 -10.16451 -10.15855
 Alpha  occ. eigenvalues --  -10.15752 -10.15634  -9.44340  -7.20549  -7.19944
 Alpha  occ. eigenvalues --   -7.19942  -5.30080  -3.66177  -3.65777  -3.65740
 Alpha  occ. eigenvalues --   -0.81036  -0.79309  -0.71661  -0.70087  -0.69587
 Alpha  occ. eigenvalues --   -0.59412  -0.49721  -0.46138  -0.44826  -0.43202
 Alpha  occ. eigenvalues --   -0.42063  -0.41862  -0.41215  -0.40860  -0.39784
 Alpha  occ. eigenvalues --   -0.35938  -0.35562  -0.34263  -0.33306  -0.32472
 Alpha  occ. eigenvalues --   -0.29605  -0.28046
 Alpha virt. eigenvalues --   -0.01206   0.00678   0.00933   0.01595   0.02868
 Alpha virt. eigenvalues --    0.04037   0.04801   0.05151   0.05373   0.05751
 Alpha virt. eigenvalues --    0.06929   0.07360   0.07820   0.08092   0.08628
 Alpha virt. eigenvalues --    0.08784   0.09476   0.09637   0.09851   0.10581
 Alpha virt. eigenvalues --    0.11259   0.11895   0.12346   0.12680   0.13332
 Alpha virt. eigenvalues --    0.14153   0.14975   0.15489   0.15767   0.16405
 Alpha virt. eigenvalues --    0.17520   0.18259   0.19318   0.19660   0.20014
 Alpha virt. eigenvalues --    0.21103   0.21370   0.22395   0.22853   0.23410
 Alpha virt. eigenvalues --    0.24319   0.26026   0.26721   0.27845   0.29061
 Alpha virt. eigenvalues --    0.31162   0.31522   0.32904   0.33483   0.36902
 Alpha virt. eigenvalues --    0.38213   0.39329   0.39910   0.42258   0.43791
 Alpha virt. eigenvalues --    0.45213   0.48887   0.50042   0.50499   0.52128
 Alpha virt. eigenvalues --    0.52633   0.53012   0.53568   0.54000   0.55303
 Alpha virt. eigenvalues --    0.56583   0.61073   0.61803   0.62676   0.63857
 Alpha virt. eigenvalues --    0.64745   0.65495   0.66651   0.67073   0.67682
 Alpha virt. eigenvalues --    0.68926   0.69295   0.71488   0.71817   0.72432
 Alpha virt. eigenvalues --    0.73867   0.75977   0.77626   0.78454   0.79242
 Alpha virt. eigenvalues --    0.80315   0.81855   0.86070   0.89198   0.89705
 Alpha virt. eigenvalues --    0.91331   0.92301   0.93033   0.96462   0.99664
 Alpha virt. eigenvalues --    1.00733   1.02370   1.06722   1.06934   1.10496
 Alpha virt. eigenvalues --    1.15367   1.17534   1.19822   1.21839   1.25621
 Alpha virt. eigenvalues --    1.38321   1.39387   1.41969   1.44116   1.46191
 Alpha virt. eigenvalues --    1.46801   1.47384   1.48689   1.49186   1.52191
 Alpha virt. eigenvalues --    1.52698   1.55580   1.56643   1.57488   1.57543
 Alpha virt. eigenvalues --    1.59294   1.60861   1.61804   1.63474   1.64561
 Alpha virt. eigenvalues --    1.67621   1.70015   1.72000   1.74742   1.75639
 Alpha virt. eigenvalues --    1.76131   1.76538   1.80422   1.80620   1.81851
 Alpha virt. eigenvalues --    1.85852   1.94981   1.97822   2.00798   2.04030
 Alpha virt. eigenvalues --    2.05652   2.07357   2.12698   2.13203   2.18885
 Alpha virt. eigenvalues --    2.20396   2.23368   2.24297   2.27626   2.29350
 Alpha virt. eigenvalues --    2.31493   2.33369   2.39251   2.41465   2.44050
 Alpha virt. eigenvalues --    2.49518   2.50081   2.50514   2.51430   2.51846
 Alpha virt. eigenvalues --    2.53241   2.53774   2.55220   2.56315   2.57172
 Alpha virt. eigenvalues --    2.57642   2.58926   2.59114   2.61446   2.63089
 Alpha virt. eigenvalues --    2.64523   2.65700   2.66107   2.69114   2.71434
 Alpha virt. eigenvalues --    2.74419   2.82046   2.83932   2.88332   2.93211
 Alpha virt. eigenvalues --    2.99546   3.05159   3.10722   3.17511   3.23100
 Alpha virt. eigenvalues --    3.43069   3.77504   3.78038   3.80227   3.80655
 Alpha virt. eigenvalues --    3.82754   3.84563   3.87621   3.89431   4.09797
 Alpha virt. eigenvalues --    4.24725   5.70750   9.76297  11.44778  11.45247
 Alpha virt. eigenvalues --   11.47191  23.83067  23.99180  23.99532  24.02005
 Alpha virt. eigenvalues --   24.02355  25.96268  25.98993  26.35061 141.12912
 Alpha virt. eigenvalues --  215.75999
          Condensed to atoms (all electrons):
               1          2          3          4          5          6
     1  Si  12.617711   0.491411   0.141597  -0.011267   0.031891  -0.034034
     2  Cl   0.491411  16.954633  -0.113695  -0.004109   0.006266  -0.000913
     3  C    0.141597  -0.113695   5.822953   0.374465   0.343763   0.381286
     4  H   -0.011267  -0.004109   0.374465   0.500431  -0.018933  -0.015510
     5  H    0.031891   0.006266   0.343763  -0.018933   0.520098  -0.020600
     6  H   -0.034034  -0.000913   0.381286  -0.015510  -0.020600   0.500982
     7  C   -0.063654  -0.082095  -0.106435  -0.011428  -0.007507   0.015713
     8  H   -0.017892  -0.002160   0.014052  -0.000093  -0.000075  -0.000157
     9  H   -0.002332  -0.004133  -0.012685   0.001119   0.000277  -0.000088
    10  C    0.353639  -0.180211  -0.151611   0.019552  -0.023552  -0.004231
    11  H   -0.030668   0.006397  -0.000978  -0.000252   0.000315   0.001195
    12  H    0.020019   0.005555  -0.008379   0.000272   0.000544  -0.000084
    13  C   -0.152652   0.033328  -0.012943  -0.000615  -0.000863   0.002765
    14  H   -0.018919   0.004148   0.000443  -0.000010  -0.000001   0.000004
    15  H    0.027349  -0.001926  -0.001165   0.000005   0.000006  -0.000003
    16  H   -0.017096  -0.001415   0.002674  -0.000034   0.000012  -0.000018
    17  C   -0.091535   0.034563   0.063535  -0.005218   0.007081   0.000373
    18  H    0.020923  -0.000495  -0.001270   0.000012   0.000060  -0.000052
    19  H    0.002367   0.000804  -0.000939   0.000101   0.001852  -0.000244
    20  H   -0.017575   0.000683  -0.001583  -0.000072  -0.000047   0.000112
               7          8          9         10         11         12
     1  Si  -0.063654  -0.017892  -0.002332   0.353639  -0.030668   0.020019
     2  Cl  -0.082095  -0.002160  -0.004133  -0.180211   0.006397   0.005555
     3  C   -0.106435   0.014052  -0.012685  -0.151611  -0.000978  -0.008379
     4  H   -0.011428  -0.000093   0.001119   0.019552  -0.000252   0.000272
     5  H   -0.007507  -0.000075   0.000277  -0.023552   0.000315   0.000544
     6  H    0.015713  -0.000157  -0.000088  -0.004231   0.001195  -0.000084
     7  C    5.997228   0.371002   0.368786  -0.315217   0.011025   0.352426
     8  H    0.371002   0.505214  -0.014522  -0.011739  -0.000054  -0.020533
     9  H    0.368786  -0.014522   0.491492   0.025514  -0.000080  -0.018458
    10  C   -0.315217  -0.011739   0.025514   6.498953   0.363034  -0.014527
    11  H    0.011025  -0.000054  -0.000080   0.363034   0.530941  -0.000078
    12  H    0.352426  -0.020533  -0.018458  -0.014527  -0.000078   0.512569
    13  C    0.088844   0.000133  -0.004706  -0.006705  -0.014701   0.004885
    14  H    0.001044   0.000003  -0.000055  -0.051326  -0.006106   0.000028
    15  H   -0.004311   0.000011   0.000015  -0.051751  -0.007007   0.000033
    16  H    0.009374   0.003340  -0.000134  -0.031305   0.009426  -0.000667
    17  C    0.117901   0.002566  -0.006204  -0.232276  -0.028939   0.000084
    18  H   -0.004150  -0.000013   0.000010  -0.022173  -0.010235   0.000170
    19  H   -0.002500   0.000086  -0.000054  -0.063175  -0.003730  -0.000076
    20  H    0.008456  -0.000125  -0.000041  -0.040980   0.008761   0.000651
              13         14         15         16         17         18
     1  Si  -0.152652  -0.018919   0.027349  -0.017096  -0.091535   0.020923
     2  Cl   0.033328   0.004148  -0.001926  -0.001415   0.034563  -0.000495
     3  C   -0.012943   0.000443  -0.001165   0.002674   0.063535  -0.001270
     4  H   -0.000615  -0.000010   0.000005  -0.000034  -0.005218   0.000012
     5  H   -0.000863  -0.000001   0.000006   0.000012   0.007081   0.000060
     6  H    0.002765   0.000004  -0.000003  -0.000018   0.000373  -0.000052
     7  C    0.088844   0.001044  -0.004311   0.009374   0.117901  -0.004150
     8  H    0.000133   0.000003   0.000011   0.003340   0.002566  -0.000013
     9  H   -0.004706  -0.000055   0.000015  -0.000134  -0.006204   0.000010
    10  C   -0.006705  -0.051326  -0.051751  -0.031305  -0.232276  -0.022173
    11  H   -0.014701  -0.006106  -0.007007   0.009426  -0.028939  -0.010235
    12  H    0.004885   0.000028   0.000033  -0.000667   0.000084   0.000170
    13  C    5.327731   0.435237   0.413941   0.405292   0.003563  -0.023918
    14  H    0.435237   0.510391  -0.025301  -0.026091   0.014065   0.000222
    15  H    0.413941  -0.025301   0.557762  -0.033960  -0.007795   0.007923
    16  H    0.405292  -0.026091  -0.033960   0.563223  -0.014950  -0.001494
    17  C    0.003563   0.014065  -0.007795  -0.014950   5.484703   0.412506
    18  H   -0.023918   0.000222   0.007923  -0.001494   0.412506   0.535215
    19  H    0.014764  -0.000550   0.000605  -0.000156   0.415032  -0.024373
    20  H   -0.001325   0.000118  -0.002701   0.003931   0.414234  -0.030500
              19         20
     1  Si   0.002367  -0.017575
     2  Cl   0.000804   0.000683
     3  C   -0.000939  -0.001583
     4  H    0.000101  -0.000072
     5  H    0.001852  -0.000047
     6  H   -0.000244   0.000112
     7  C   -0.002500   0.008456
     8  H    0.000086  -0.000125
     9  H   -0.000054  -0.000041
    10  C   -0.063175  -0.040980
    11  H   -0.003730   0.008761
    12  H   -0.000076   0.000651
    13  C    0.014764  -0.001325
    14  H   -0.000550   0.000118
    15  H    0.000605  -0.002701
    16  H   -0.000156   0.003931
    17  C    0.415032   0.414234
    18  H   -0.024373  -0.030500
    19  H    0.554573  -0.030323
    20  H   -0.030323   0.547140
 Mulliken charges:
               1
     1  Si   0.750718
     2  Cl  -0.146637
     3  C   -0.733086
     4  H    0.171584
     5  H    0.159413
     6  H    0.173505
     7  C   -0.744503
     8  H    0.170955
     9  H    0.176280
    10  C   -0.059912
    11  H    0.171734
    12  H    0.165565
    13  C   -0.512056
    14  H    0.162656
    15  H    0.128269
    16  H    0.130048
    17  C   -0.583288
    18  H    0.141633
    19  H    0.135935
    20  H    0.141186
 Sum of Mulliken charges =   0.00000
 Mulliken charges with hydrogens summed into heavy atoms:
               1
     1  Si   0.750718
     2  Cl  -0.146637
     3  C   -0.228584
     7  C   -0.231702
    10  C    0.111822
    13  C   -0.091083
    17  C   -0.164534
 Electronic spatial extent (au):  <R**2>=           1333.3129
 Charge=              0.0000 electrons
 Dipole moment (field-independent basis, Debye):
    X=              2.0734    Y=              1.4107    Z=              0.3219  Tot=              2.5284
 Quadrupole moment (field-independent basis, Debye-Ang):
   XX=            -64.4626   YY=            -61.6259   ZZ=            -60.3762
   XY=             -2.5162   XZ=             -1.2299   YZ=              0.2547
 Traceless Quadrupole moment (field-independent basis, Debye-Ang):
   XX=             -2.3077   YY=              0.5290   ZZ=              1.7787
   XY=             -2.5162   XZ=             -1.2299   YZ=              0.2547
 Octapole moment (field-independent basis, Debye-Ang**2):
  XXX=              1.6068  YYY=             -2.4858  ZZZ=             -4.1772  XYY=             -1.2767
  XXY=              2.4692  XXZ=              0.3816  XZZ=             -1.3929  YZZ=             -1.6043
  YYZ=              0.5345  XYZ=              0.3041
 Hexadecapole moment (field-independent basis, Debye-Ang**3):
 XXXX=           -921.3234 YYYY=           -600.6778 ZZZZ=           -370.8777 XXXY=             -7.2133
 XXXZ=             -6.5820 YYYX=             12.9436 YYYZ=              9.5838 ZZZX=              1.0786
 ZZZY=             -2.3700 XXYY=           -249.2149 XXZZ=           -212.0942 YYZZ=           -160.8306
 XXYZ=              6.0059 YYXZ=             -2.2537 ZZXY=              1.2635
 N-N= 4.689066894719D+02 E-N=-3.180579531951D+03  KE= 9.457725939551D+02
 There are a total of      164354 grid points.
 ElSum from          density=       73.9997373167
 ElSum from atomic densities=       73.9996528032

 Hirshfeld populations at iteration   1 (CX, CA, CB, DipXYZ):
               1          2          3          4          5          6
     1  Si   0.000000   6.788900   6.788900  -0.030443   0.001710   0.004551
     2  Cl   0.000007   8.605761   8.605761  -0.003159  -0.023920  -0.005077
     3  C    0.000000   3.100867   3.100867  -0.009610   0.096256  -0.046312
     4  H    0.000002   0.479120   0.479120  -0.134998   0.067854   0.058363
     5  H    0.000001   0.479109   0.479109   0.119663   0.100531   0.028105
     6  H    0.000002   0.478966   0.478966  -0.011785  -0.024156  -0.159746
     7  C    0.000000   3.099915   3.099915   0.013564   0.025039   0.103063
     8  H    0.000002   0.479413   0.479413   0.025409  -0.136792   0.077587
     9  H    0.000002   0.478159   0.478159  -0.136220   0.069764   0.057324
    10  C    0.000000   3.056312   3.056312   0.119923  -0.047327  -0.035303
    11  H    0.000001   0.481773   0.481773  -0.001988  -0.027680  -0.154259
    12  H    0.000001   0.478685   0.478685   0.119958   0.101034   0.030194
    13  C    0.000000   3.050783   3.050783   0.012000   0.000058  -0.008291
    14  H    0.000001   0.482069   0.482069  -0.079719  -0.104612  -0.059935
    15  H    0.000000   0.482802   0.482802   0.136484  -0.041982  -0.027647
    16  H    0.000001   0.483206   0.483206  -0.019307   0.012030   0.140615
    17  C    0.000000   3.048639   3.048639   0.003834  -0.009421  -0.007250
    18  H    0.000000   0.480702   0.480702   0.122548  -0.061436  -0.059493
    19  H    0.000000   0.482519   0.482519  -0.024025   0.124602  -0.070860
    20  H    0.000000   0.482172   0.482172   0.017155   0.019221   0.142566
       Tot   0.000023  36.999869  36.999869   0.239285   0.140772   0.008196

 Dip from Atomic Chgs              0.576455   0.414203   0.118237
         Total Dipole              0.815740   0.554974   0.126433

 Hirshfeld charges, spin densities, dipoles, and CM5 charges using IRadAn=      4:
              Q-H        S-H        Dx         Dy         Dz        Q-CM5   
     1  Si   0.422200   0.000000  -0.030443   0.001710   0.004551   0.305090
     2  Cl  -0.211522   0.000000  -0.003159  -0.023920  -0.005077  -0.246215
     3  C   -0.201733   0.000000  -0.009610   0.096256  -0.046312  -0.323000
     4  H    0.041761   0.000000  -0.134998   0.067854   0.058363   0.098735
     5  H    0.041782   0.000000   0.119663   0.100531   0.028105   0.098961
     6  H    0.042067   0.000000  -0.011785  -0.024156  -0.159746   0.099090
     7  C   -0.199830   0.000000   0.013564   0.025039   0.103063  -0.321492
     8  H    0.041175   0.000000   0.025409  -0.136792   0.077587   0.098448
     9  H    0.043682   0.000000  -0.136220   0.069764   0.057324   0.100666
    10  C   -0.112624   0.000000   0.119923  -0.047327  -0.035303  -0.154120
    11  H    0.036454   0.000000  -0.001988  -0.027680  -0.154259   0.100386
    12  H    0.042631   0.000000   0.119958   0.101034   0.030194   0.099859
    13  C   -0.101566   0.000000   0.012000   0.000058  -0.008291  -0.254575
    14  H    0.035863   0.000000  -0.079719  -0.104612  -0.059935   0.091449
    15  H    0.034396   0.000000   0.136484  -0.041982  -0.027647   0.089461
    16  H    0.033588   0.000000  -0.019307   0.012030   0.140615   0.091142
    17  C   -0.097278   0.000000   0.003834  -0.009421  -0.007250  -0.250647
    18  H    0.038597   0.000000   0.122548  -0.061436  -0.059493   0.093360
    19  H    0.034962   0.000000  -0.024025   0.124602  -0.070860   0.091193
    20  H    0.035656   0.000000   0.017155   0.019221   0.142566   0.092472
       Tot   0.000263   0.000000   0.239285   0.140772   0.008196   0.000263
 Hirshfeld charges with hydrogens summed into heavy atoms:
              Q-H       Q-CM5   
     1  Si   0.422200   0.305090
     2  Cl  -0.211522  -0.246215
     3  C   -0.076123  -0.026215
     7  C   -0.072341  -0.022519
    10  C   -0.076169  -0.053734
    13  C    0.002282   0.017477
    17  C    0.011937   0.026378
 
 EQQ= 0.000000000000E+00 EQD= 0.000000000000E+00 EDD= 0.388448060017E-02
 EQQ+QD+DD= 0.388448060017E-02
 
          MBS Condensed to atoms (all electrons):
               1          2          3          4          5          6
     1  Si  12.179432   0.225401   0.341082  -0.014984  -0.014044  -0.015174
     2  Cl   0.225401  17.181831  -0.005355   0.000003   0.000149   0.000016
     3  C    0.341082  -0.005355   4.994340   0.375551   0.374455   0.375725
     4  H   -0.014984   0.000003   0.375551   0.571842  -0.021203  -0.021142
     5  H   -0.014044   0.000149   0.374455  -0.021203   0.577226  -0.021371
     6  H   -0.015174   0.000016   0.375725  -0.021142  -0.021371   0.572124
     7  C    0.341829  -0.005412  -0.007366  -0.000201  -0.000045   0.000214
     8  H   -0.015534   0.000018   0.000217  -0.000001  -0.000001  -0.000006
     9  H   -0.014837   0.000008  -0.000191   0.000104   0.000019  -0.000001
    10  C    0.343021  -0.005219  -0.006970   0.000200  -0.000130  -0.000225
    11  H   -0.018704   0.000083  -0.000127  -0.000003   0.000029   0.000134
    12  H   -0.014074   0.000150  -0.000038   0.000018   0.000013  -0.000001
    13  C   -0.017153  -0.000423   0.000081  -0.000002   0.000001   0.000000
    14  H   -0.001154   0.000748   0.000002   0.000000   0.000000   0.000000
    15  H    0.001702   0.000002  -0.000003   0.000000   0.000000   0.000000
    16  H   -0.005353   0.000081   0.000009   0.000000   0.000000   0.000000
    17  C   -0.015185   0.000049  -0.000609   0.000015  -0.000322   0.000028
    18  H    0.001531  -0.000002   0.000000   0.000000   0.000003  -0.000003
    19  H   -0.002637   0.000002  -0.000005  -0.000014   0.000692   0.000034
    20  H   -0.003168   0.000001   0.000031  -0.000002   0.000022   0.000003
               7          8          9         10         11         12
     1  Si   0.341829  -0.015534  -0.014837   0.343021  -0.018704  -0.014074
     2  Cl  -0.005412   0.000018   0.000008  -0.005219   0.000083   0.000150
     3  C   -0.007366   0.000217  -0.000191  -0.006970  -0.000127  -0.000038
     4  H   -0.000201  -0.000001   0.000104   0.000200  -0.000003   0.000018
     5  H   -0.000045  -0.000001   0.000019  -0.000130   0.000029   0.000013
     6  H    0.000214  -0.000006  -0.000001  -0.000225   0.000134  -0.000001
     7  C    4.994560   0.375275   0.375929  -0.006755   0.000185   0.374390
     8  H    0.375275   0.571848  -0.020951  -0.000287   0.000003  -0.021343
     9  H    0.375929  -0.020951   0.568790   0.000187  -0.000004  -0.021137
    10  C   -0.006755  -0.000287   0.000187   4.913650   0.374433  -0.000146
    11  H    0.000185   0.000003  -0.000004   0.374433   0.602962   0.000003
    12  H    0.374390  -0.021343  -0.021137  -0.000146   0.000003   0.576005
    13  C   -0.000940  -0.000375   0.000019   0.358793  -0.023627   0.000049
    14  H    0.000026   0.000011  -0.000001  -0.021734  -0.003799  -0.000001
    15  H    0.000003  -0.000007   0.000000  -0.022948  -0.001290  -0.000003
    16  H    0.000099   0.001141  -0.000026  -0.025250   0.002422   0.000008
    17  C   -0.000594   0.000036   0.000014   0.358578  -0.023593  -0.000298
    18  H    0.000001  -0.000003   0.000000  -0.021894  -0.003055   0.000002
    19  H    0.000024   0.000002  -0.000002  -0.022931  -0.001986   0.000019
    20  H    0.000040   0.000036  -0.000012  -0.024446   0.002448   0.000670
              13         14         15         16         17         18
     1  Si  -0.017153  -0.001154   0.001702  -0.005353  -0.015185   0.001531
     2  Cl  -0.000423   0.000748   0.000002   0.000081   0.000049  -0.000002
     3  C    0.000081   0.000002  -0.000003   0.000009  -0.000609   0.000000
     4  H   -0.000002   0.000000   0.000000   0.000000   0.000015   0.000000
     5  H    0.000001   0.000000   0.000000   0.000000  -0.000322   0.000003
     6  H    0.000000   0.000000   0.000000   0.000000   0.000028  -0.000003
     7  C   -0.000940   0.000026   0.000003   0.000099  -0.000594   0.000001
     8  H   -0.000375   0.000011  -0.000007   0.001141   0.000036  -0.000003
     9  H    0.000019  -0.000001   0.000000  -0.000026   0.000014   0.000000
    10  C    0.358793  -0.021734  -0.022948  -0.025250   0.358578  -0.021894
    11  H   -0.023627  -0.003799  -0.001290   0.002422  -0.023593  -0.003055
    12  H    0.000049  -0.000001  -0.000003   0.000008  -0.000298   0.000002
    13  C    4.846942   0.381907   0.380379   0.382188  -0.026647  -0.003210
    14  H    0.381907   0.584902  -0.022509  -0.022491   0.001625   0.000021
    15  H    0.380379  -0.022509   0.601243  -0.024039  -0.004669   0.002010
    16  H    0.382188  -0.022491  -0.024039   0.605281  -0.001092  -0.000117
    17  C   -0.026647   0.001625  -0.004669  -0.001092   4.844477   0.381865
    18  H   -0.003210   0.000021   0.002010  -0.000117   0.381865   0.592078
    19  H    0.001687  -0.000065   0.000053  -0.000011   0.380809  -0.022943
    20  H   -0.002310   0.000018  -0.000198   0.001090   0.381775  -0.023638
              19         20
     1  Si  -0.002637  -0.003168
     2  Cl   0.000002   0.000001
     3  C   -0.000005   0.000031
     4  H   -0.000014  -0.000002
     5  H    0.000692   0.000022
     6  H    0.000034   0.000003
     7  C    0.000024   0.000040
     8  H    0.000002   0.000036
     9  H   -0.000002  -0.000012
    10  C   -0.022931  -0.024446
    11  H   -0.001986   0.002448
    12  H    0.000019   0.000670
    13  C    0.001687  -0.002310
    14  H   -0.000065   0.000018
    15  H    0.000053  -0.000198
    16  H   -0.000011   0.001090
    17  C    0.380809   0.381775
    18  H   -0.022943  -0.023638
    19  H    0.600929  -0.022900
    20  H   -0.022900   0.601391
 MBS Mulliken charges:
               1
     1  Si   0.718001
     2  Cl  -0.392132
     3  C   -0.440825
     4  H    0.109822
     5  H    0.104509
     6  H    0.109645
     7  C   -0.441263
     8  H    0.109922
     9  H    0.112093
    10  C   -0.189925
    11  H    0.093486
    12  H    0.105715
    13  C   -0.277360
    14  H    0.102496
    15  H    0.090276
    16  H    0.086058
    17  C   -0.276262
    18  H    0.097352
    19  H    0.089244
    20  H    0.089149
 Sum of MBS Mulliken charges =   0.00000
 MBS Mulliken charges with hydrogens summed into heavy atoms:
               1
     1  Si   0.718001
     2  Cl  -0.392132
     3  C   -0.116851
     7  C   -0.113533
    10  C   -0.096439
    13  C    0.001470
    17  C   -0.000516
 Breneman (CHELPG) radii used.
 Generate Potential Derived Charges using the Breneman model, NDens= 1.
 Grid spacing= 0.300 Box extension= 2.800
 NStep X,Y,Z=   37     38     35   Total possible points=       49210
 Number of Points to Fit=   12739

 **********************************************************************

            Electrostatic Properties Using The SCF Density

 **********************************************************************

       Atomic Center    1 is at  -0.338984  0.371436  0.069962
       Atomic Center    2 is at  -1.996993 -0.961526 -0.303961
       Atomic Center    3 is at  -0.654268  2.062895 -0.826232
       Atomic Center    4 is at  -1.555909  2.501714 -0.452894
       Atomic Center    5 is at   0.167061  2.723205 -0.641002
       Atomic Center    6 is at  -0.747849  1.896684 -1.879094
       Atomic Center    7 is at  -0.169314  0.672791  1.978887
       Atomic Center    8 is at   0.004580 -0.260127  2.473180
       Atomic Center    9 is at  -1.070955  1.111610  2.352226
       Atomic Center   10 is at   1.295767 -0.424179 -0.606932
       Atomic Center   11 is at   1.202186 -0.590390 -1.659793
       Atomic Center   12 is at   0.652015  1.333101  2.164118
       Atomic Center   13 is at   1.546044 -1.766884  0.104480
       Atomic Center   14 is at   0.877751 -2.506543 -0.284351
       Atomic Center   15 is at   2.556645 -2.076148 -0.062672
       Atomic Center   16 is at   1.377628 -1.650878  1.154756
       Atomic Center   17 is at   2.477866  0.526173 -0.340339
       Atomic Center   18 is at   3.376651  0.095359 -0.729549
       Atomic Center   19 is at   2.295717  1.465212 -0.819848
       Atomic Center   20 is at   2.582558  0.678259  0.713611
   12739 points will be used for fitting atomic charges
 Fitting point charges to electrostatic potential
 Charges from ESP fit, RMS=   0.00238 RRMS=   0.24479:
 ESP charges:
               1
     1  Si   0.560167
     2  Cl  -0.307807
     3  C   -0.398873
     4  H    0.102030
     5  H    0.093813
     6  H    0.073525
     7  C   -0.322793
     8  H    0.067456
     9  H    0.076940
    10  C    0.208670
    11  H   -0.041875
    12  H    0.073860
    13  C   -0.225654
    14  H    0.031805
    15  H    0.060090
    16  H    0.044361
    17  C   -0.278997
    18  H    0.073962
    19  H    0.051852
    20  H    0.057468
 Sum of ESP charges =   0.00000
 ESP charges with hydrogens summed into heavy atoms:
               1
     1  Si   0.560167
     2  Cl  -0.307807
     3  C   -0.129505
     7  C   -0.104536
    10  C    0.166795
    13  C   -0.089399
    17  C   -0.095715
 Charge=   0.00000 Dipole=     2.1525     1.5037     0.4029 Tot=     2.6564
 -----------------------------------------------------------------

              Electrostatic Properties (Atomic Units)

 -----------------------------------------------------------------
    Center     Electric         -------- Electric Field --------
               Potential          X             Y             Z
 -----------------------------------------------------------------
    1 Atom    -49.252983
    2 Atom    -64.421355
    3 Atom    -14.790585
    4 Atom     -1.109774
    5 Atom     -1.105082
    6 Atom     -1.109589
    7 Atom    -14.788300
    8 Atom     -1.107683
    9 Atom     -1.107196
   10 Atom    -14.774764
   11 Atom     -1.123167
   12 Atom     -1.103339
   13 Atom    -14.789565
   14 Atom     -1.128769
   15 Atom     -1.126816
   16 Atom     -1.125200
   17 Atom    -14.782602
   18 Atom     -1.119804
   19 Atom     -1.120803
   20 Atom     -1.119237
 -----------------------------------------------------------------
 ******************************Gaussian NBO Version 3.1******************************
             N A T U R A L   A T O M I C   O R B I T A L   A N D
          N A T U R A L   B O N D   O R B I T A L   A N A L Y S I S
 ******************************Gaussian NBO Version 3.1******************************
       /RESON  / : Allow strongly delocalized NBO set

 Analyzing the SCF density

 Job title: Title Card Required                                             

 Storage needed:    185980 in NPA ( 536868712 available)


 NATURAL POPULATIONS:  Natural atomic orbital occupancies 
                                                          
   NAO  Atom  No  lang   Type(AO)    Occupancy      Energy
 ----------------------------------------------------------
     1   Si    1  S      Cor( 1S)     2.00000     -65.36342
     2   Si    1  S      Cor( 2S)     1.99906      -5.95390
     3   Si    1  S      Val( 3S)     0.91499      -0.24729
     4   Si    1  S      Ryd( 4S)     0.00087       0.53132
     5   Si    1  S      Ryd( 5S)     0.00046       0.58324
     6   Si    1  S      Ryd( 6S)     0.00006       9.22777
     7   Si    1  S      Ryd( 7S)     0.00000     137.09260
     8   Si    1  px     Cor( 2p)     1.99966      -3.65354
     9   Si    1  px     Val( 3p)     0.46178      -0.01085
    10   Si    1  px     Ryd( 6p)     0.00371       0.92086
    11   Si    1  px     Ryd( 4p)     0.00091       0.44979
    12   Si    1  px     Ryd( 5p)     0.00045       0.85214
    13   Si    1  px     Ryd( 7p)     0.00001      11.09269
    14   Si    1  py     Cor( 2p)     1.99977      -3.65272
    15   Si    1  py     Val( 3p)     0.50392      -0.00249
    16   Si    1  py     Ryd( 6p)     0.00380       0.94402
    17   Si    1  py     Ryd( 4p)     0.00056       0.40418
    18   Si    1  py     Ryd( 5p)     0.00031       0.86801
    19   Si    1  py     Ryd( 7p)     0.00001      11.06832
    20   Si    1  pz     Cor( 2p)     1.99984      -3.65066
    21   Si    1  pz     Val( 3p)     0.53875       0.01418
    22   Si    1  pz     Ryd( 5p)     0.00389       0.87629
    23   Si    1  pz     Ryd( 4p)     0.00054       0.38802
    24   Si    1  pz     Ryd( 6p)     0.00033       0.94818
    25   Si    1  pz     Ryd( 7p)     0.00001      11.04387
    26   Si    1  dxy    Ryd( 3d)     0.00882       1.01067
    27   Si    1  dxz    Ryd( 3d)     0.00437       0.92706
    28   Si    1  dyz    Ryd( 3d)     0.00516       0.99819
    29   Si    1  dx2y2  Ryd( 3d)     0.00560       1.00585
    30   Si    1  dz2    Ryd( 3d)     0.00733       1.14182

    31   Cl    2  S      Cor( 1S)     2.00000    -100.25480
    32   Cl    2  S      Cor( 2S)     1.99982     -10.38060
    33   Cl    2  S      Val( 3S)     1.89191      -1.04857
    34   Cl    2  S      Ryd( 4S)     0.00065       0.98409
    35   Cl    2  S      Ryd( 5S)     0.00012       1.19308
    36   Cl    2  S      Ryd( 6S)     0.00000      17.23635
    37   Cl    2  S      Ryd( 7S)     0.00000     207.54163
    38   Cl    2  px     Cor( 2p)     1.99995      -7.19746
    39   Cl    2  px     Val( 3p)     1.73927      -0.31159
    40   Cl    2  px     Ryd( 5p)     0.00036       0.47558
    41   Cl    2  px     Ryd( 4p)     0.00015       0.40574
    42   Cl    2  px     Ryd( 6p)     0.00007       3.69732
    43   Cl    2  px     Ryd( 7p)     0.00000      24.58055
    44   Cl    2  py     Cor( 2p)     1.99997      -7.19642
    45   Cl    2  py     Val( 3p)     1.81394      -0.31159
    46   Cl    2  py     Ryd( 5p)     0.00031       0.45627
    47   Cl    2  py     Ryd( 4p)     0.00011       0.41876
    48   Cl    2  py     Ryd( 6p)     0.00004       3.60943
    49   Cl    2  py     Ryd( 7p)     0.00000      24.55074
    50   Cl    2  pz     Cor( 2p)     1.99999      -7.19464
    51   Cl    2  pz     Val( 3p)     1.94107      -0.31119
    52   Cl    2  pz     Ryd( 5p)     0.00013       0.44279
    53   Cl    2  pz     Ryd( 4p)     0.00015       0.43041
    54   Cl    2  pz     Ryd( 6p)     0.00001       3.51596
    55   Cl    2  pz     Ryd( 7p)     0.00000      24.51144
    56   Cl    2  dxy    Ryd( 3d)     0.00355       0.98839
    57   Cl    2  dxz    Ryd( 3d)     0.00094       0.93088
    58   Cl    2  dyz    Ryd( 3d)     0.00061       0.91365
    59   Cl    2  dx2y2  Ryd( 3d)     0.00131       0.94068
    60   Cl    2  dz2    Ryd( 3d)     0.00120       0.92123

    61    C    3  S      Cor( 1S)     1.99930     -10.01090
    62    C    3  S      Val( 2S)     1.19137      -0.33264
    63    C    3  S      Ryd( 4S)     0.00313       0.96427
    64    C    3  S      Ryd( 3S)     0.00014       0.40357
    65    C    3  S      Ryd( 5S)     0.00000      23.48152
    66    C    3  px     Val( 2p)     1.24534      -0.10956
    67    C    3  px     Ryd( 4p)     0.00124       0.65258
    68    C    3  px     Ryd( 3p)     0.00016       0.31439
    69    C    3  px     Ryd( 5p)     0.00002       2.97597
    70    C    3  py     Val( 2p)     1.32934      -0.15348
    71    C    3  py     Ryd( 4p)     0.00348       0.67051
    72    C    3  py     Ryd( 3p)     0.00029       0.28200
    73    C    3  py     Ryd( 5p)     0.00004       2.80126
    74    C    3  pz     Val( 2p)     1.27104      -0.12103
    75    C    3  pz     Ryd( 4p)     0.00154       0.64962
    76    C    3  pz     Ryd( 3p)     0.00018       0.30430
    77    C    3  pz     Ryd( 5p)     0.00004       2.93211
    78    C    3  dxy    Ryd( 3d)     0.00078       2.11474
    79    C    3  dxz    Ryd( 3d)     0.00032       1.85041
    80    C    3  dyz    Ryd( 3d)     0.00056       1.78680
    81    C    3  dx2y2  Ryd( 3d)     0.00057       1.81895
    82    C    3  dz2    Ryd( 3d)     0.00096       2.19586

    83    H    4  S      Val( 1S)     0.77034       0.05222
    84    H    4  S      Ryd( 2S)     0.00055       0.95556
    85    H    4  S      Ryd( 3S)     0.00010       1.80176
    86    H    4  px     Ryd( 2p)     0.00024       2.42045
    87    H    4  py     Ryd( 2p)     0.00014       1.85056
    88    H    4  pz     Ryd( 2p)     0.00011       1.84312

    89    H    5  S      Val( 1S)     0.77435       0.04559
    90    H    5  S      Ryd( 2S)     0.00050       0.83949
    91    H    5  S      Ryd( 3S)     0.00012       1.93626
    92    H    5  px     Ryd( 2p)     0.00020       2.29224
    93    H    5  py     Ryd( 2p)     0.00022       2.06590
    94    H    5  pz     Ryd( 2p)     0.00008       1.75129

    95    H    6  S      Val( 1S)     0.77014       0.05213
    96    H    6  S      Ryd( 2S)     0.00064       0.97409
    97    H    6  S      Ryd( 3S)     0.00009       1.78908
    98    H    6  px     Ryd( 2p)     0.00007       1.76172
    99    H    6  py     Ryd( 2p)     0.00013       1.70134
   100    H    6  pz     Ryd( 2p)     0.00029       2.65138

   101    C    7  S      Cor( 1S)     1.99930     -10.01314
   102    C    7  S      Val( 2S)     1.19122      -0.33445
   103    C    7  S      Ryd( 4S)     0.00365       0.96369
   104    C    7  S      Ryd( 3S)     0.00014       0.40411
   105    C    7  S      Ryd( 5S)     0.00000      23.46501
   106    C    7  px     Val( 2p)     1.24486      -0.11092
   107    C    7  px     Ryd( 4p)     0.00117       0.63693
   108    C    7  px     Ryd( 3p)     0.00019       0.48151
   109    C    7  px     Ryd( 5p)     0.00002       2.84186
   110    C    7  py     Val( 2p)     1.24575      -0.11116
   111    C    7  py     Ryd( 4p)     0.00110       0.63385
   112    C    7  py     Ryd( 3p)     0.00010       0.46443
   113    C    7  py     Ryd( 5p)     0.00003       2.84824
   114    C    7  pz     Val( 2p)     1.35732      -0.16899
   115    C    7  pz     Ryd( 4p)     0.00453       0.64469
   116    C    7  pz     Ryd( 3p)     0.00034       0.41118
   117    C    7  pz     Ryd( 5p)     0.00005       2.66526
   118    C    7  dxy    Ryd( 3d)     0.00089       2.16484
   119    C    7  dxz    Ryd( 3d)     0.00024       1.81182
   120    C    7  dyz    Ryd( 3d)     0.00049       1.92071
   121    C    7  dx2y2  Ryd( 3d)     0.00054       1.98674
   122    C    7  dz2    Ryd( 3d)     0.00104       1.87979

   123    H    8  S      Val( 1S)     0.77118       0.05053
   124    H    8  S      Ryd( 2S)     0.00054       0.89378
   125    H    8  S      Ryd( 3S)     0.00009       1.90041
   126    H    8  px     Ryd( 2p)     0.00007       1.77153
   127    H    8  py     Ryd( 2p)     0.00026       2.45675
   128    H    8  pz     Ryd( 2p)     0.00018       1.88629

   129    H    9  S      Val( 1S)     0.76779       0.05205
   130    H    9  S      Ryd( 2S)     0.00048       0.96430
   131    H    9  S      Ryd( 3S)     0.00009       1.79371
   132    H    9  px     Ryd( 2p)     0.00024       2.41239
   133    H    9  py     Ryd( 2p)     0.00009       1.91294
   134    H    9  pz     Ryd( 2p)     0.00015       1.79363

   135    C   10  S      Cor( 1S)     1.99922     -10.03346
   136    C   10  S      Val( 2S)     1.08158      -0.29112
   137    C   10  S      Ryd( 4S)     0.00620       1.05228
   138    C   10  S      Ryd( 3S)     0.00094       0.70593
   139    C   10  S      Ryd( 5S)     0.00000      23.44408
   140    C   10  px     Val( 2p)     1.24404      -0.14915
   141    C   10  px     Ryd( 4p)     0.00406       0.65447
   142    C   10  px     Ryd( 3p)     0.00032       0.35323
   143    C   10  px     Ryd( 5p)     0.00008       2.98759
   144    C   10  py     Val( 2p)     1.09966      -0.10834
   145    C   10  py     Ryd( 4p)     0.00318       0.63507
   146    C   10  py     Ryd( 3p)     0.00033       0.35072
   147    C   10  py     Ryd( 5p)     0.00008       3.13265
   148    C   10  pz     Val( 2p)     1.20914      -0.09875
   149    C   10  pz     Ryd( 4p)     0.00324       0.67433
   150    C   10  pz     Ryd( 3p)     0.00056       0.41751
   151    C   10  pz     Ryd( 5p)     0.00012       3.12022
   152    C   10  dxy    Ryd( 3d)     0.00092       2.04172
   153    C   10  dxz    Ryd( 3d)     0.00044       1.76821
   154    C   10  dyz    Ryd( 3d)     0.00059       1.98400
   155    C   10  dx2y2  Ryd( 3d)     0.00067       1.91127
   156    C   10  dz2    Ryd( 3d)     0.00124       2.24317

   157    H   11  S      Val( 1S)     0.78591       0.05836
   158    H   11  S      Ryd( 2S)     0.00112       0.79713
   159    H   11  S      Ryd( 3S)     0.00013       2.15537
   160    H   11  px     Ryd( 2p)     0.00012       1.77612
   161    H   11  py     Ryd( 2p)     0.00013       1.81760
   162    H   11  pz     Ryd( 2p)     0.00038       2.68086

   163    H   12  S      Val( 1S)     0.77315       0.04480
   164    H   12  S      Ryd( 2S)     0.00044       0.89304
   165    H   12  S      Ryd( 3S)     0.00010       1.87985
   166    H   12  px     Ryd( 2p)     0.00020       2.29796
   167    H   12  py     Ryd( 2p)     0.00017       2.11436
   168    H   12  pz     Ryd( 2p)     0.00013       1.70010

   169    C   13  S      Cor( 1S)     1.99934     -10.00746
   170    C   13  S      Val( 2S)     1.06539      -0.22732
   171    C   13  S      Ryd( 4S)     0.00061       0.95630
   172    C   13  S      Ryd( 3S)     0.00023       0.62146
   173    C   13  S      Ryd( 5S)     0.00000      23.29913
   174    C   13  px     Val( 2p)     1.21448      -0.08608
   175    C   13  px     Ryd( 4p)     0.00277       0.61558
   176    C   13  px     Ryd( 3p)     0.00016       0.22177
   177    C   13  px     Ryd( 5p)     0.00002       3.18021
   178    C   13  py     Val( 2p)     1.10476      -0.08605
   179    C   13  py     Ryd( 4p)     0.00207       0.56728
   180    C   13  py     Ryd( 3p)     0.00047       0.18109
   181    C   13  py     Ryd( 5p)     0.00007       3.12446
   182    C   13  pz     Val( 2p)     1.17592      -0.08395
   183    C   13  pz     Ryd( 4p)     0.00188       0.52701
   184    C   13  pz     Ryd( 3p)     0.00035       0.19802
   185    C   13  pz     Ryd( 5p)     0.00004       3.16023
   186    C   13  dxy    Ryd( 3d)     0.00085       2.09427
   187    C   13  dxz    Ryd( 3d)     0.00024       1.91437
   188    C   13  dyz    Ryd( 3d)     0.00043       2.06627
   189    C   13  dx2y2  Ryd( 3d)     0.00057       2.11058
   190    C   13  dz2    Ryd( 3d)     0.00108       2.24706

   191    H   14  S      Val( 1S)     0.79008       0.05710
   192    H   14  S      Ryd( 2S)     0.00036       1.07985
   193    H   14  S      Ryd( 3S)     0.00011       1.71275
   194    H   14  px     Ryd( 2p)     0.00017       2.15483
   195    H   14  py     Ryd( 2p)     0.00019       2.26106
   196    H   14  pz     Ryd( 2p)     0.00013       1.88968

   197    H   15  S      Val( 1S)     0.80362       0.04781
   198    H   15  S      Ryd( 2S)     0.00101       0.96081
   199    H   15  S      Ryd( 3S)     0.00009       1.80242
   200    H   15  px     Ryd( 2p)     0.00029       2.62274
   201    H   15  py     Ryd( 2p)     0.00015       1.82452
   202    H   15  pz     Ryd( 2p)     0.00011       1.79149

   203    H   16  S      Val( 1S)     0.80885       0.04379
   204    H   16  S      Ryd( 2S)     0.00067       0.90182
   205    H   16  S      Ryd( 3S)     0.00010       1.94833
   206    H   16  px     Ryd( 2p)     0.00011       1.83124
   207    H   16  py     Ryd( 2p)     0.00015       1.76643
   208    H   16  pz     Ryd( 2p)     0.00029       2.71055

   209    C   17  S      Cor( 1S)     1.99933     -10.01440
   210    C   17  S      Val( 2S)     1.06581      -0.23444
   211    C   17  S      Ryd( 4S)     0.00062       0.88585
   212    C   17  S      Ryd( 3S)     0.00026       0.68474
   213    C   17  S      Ryd( 5S)     0.00000      23.29009
   214    C   17  px     Val( 2p)     1.13069      -0.09279
   215    C   17  px     Ryd( 4p)     0.00210       0.58108
   216    C   17  px     Ryd( 3p)     0.00041       0.18750
   217    C   17  px     Ryd( 5p)     0.00006       3.14164
   218    C   17  py     Val( 2p)     1.15946      -0.09142
   219    C   17  py     Ryd( 4p)     0.00272       0.57083
   220    C   17  py     Ryd( 3p)     0.00035       0.21997
   221    C   17  py     Ryd( 5p)     0.00004       3.14531
   222    C   17  pz     Val( 2p)     1.20430      -0.09085
   223    C   17  pz     Ryd( 4p)     0.00185       0.52551
   224    C   17  pz     Ryd( 3p)     0.00031       0.20295
   225    C   17  pz     Ryd( 5p)     0.00002       3.17066
   226    C   17  dxy    Ryd( 3d)     0.00062       2.16151
   227    C   17  dxz    Ryd( 3d)     0.00034       1.94944
   228    C   17  dyz    Ryd( 3d)     0.00049       2.02758
   229    C   17  dx2y2  Ryd( 3d)     0.00078       2.02246
   230    C   17  dz2    Ryd( 3d)     0.00095       2.23688

   231    H   18  S      Val( 1S)     0.79695       0.04567
   232    H   18  S      Ryd( 2S)     0.00096       1.01143
   233    H   18  S      Ryd( 3S)     0.00009       1.73974
   234    H   18  px     Ryd( 2p)     0.00025       2.44385
   235    H   18  py     Ryd( 2p)     0.00015       1.90427
   236    H   18  pz     Ryd( 2p)     0.00012       1.91541

   237    H   19  S      Val( 1S)     0.80213       0.04324
   238    H   19  S      Ryd( 2S)     0.00045       0.80816
   239    H   19  S      Ryd( 3S)     0.00010       2.00690
   240    H   19  px     Ryd( 2p)     0.00014       1.77734
   241    H   19  py     Ryd( 2p)     0.00024       2.50679
   242    H   19  pz     Ryd( 2p)     0.00014       1.97445

   243    H   20  S      Val( 1S)     0.80578       0.03898
   244    H   20  S      Ryd( 2S)     0.00065       0.94091
   245    H   20  S      Ryd( 3S)     0.00010       1.87676
   246    H   20  px     Ryd( 2p)     0.00013       1.78058
   247    H   20  py     Ryd( 2p)     0.00012       1.79661
   248    H   20  pz     Ryd( 2p)     0.00030       2.70063

 WARNING:  Population inversion found on atom Si    1
           Population inversion found on atom Cl    2
           Population inversion found on atom  C    3
           Population inversion found on atom  C    7
           Population inversion found on atom  C   10
           Population inversion found on atom  C   13
           Population inversion found on atom  C   17


 Summary of Natural Population Analysis:                  
                                                          
                                       Natural Population 
                Natural  -----------------------------------------------
    Atom  No    Charge         Core      Valence    Rydberg      Total
 -----------------------------------------------------------------------
     Si    1    1.53503      9.99833     2.41944    0.04720    12.46497
     Cl    2   -0.39563      9.99973     7.38618    0.00972    17.39563
      C    3   -1.04985      1.99930     5.03709    0.01346     7.04985
      H    4    0.22852      0.00000     0.77034    0.00114     0.77148
      H    5    0.22455      0.00000     0.77435    0.00111     0.77545
      H    6    0.22864      0.00000     0.77014    0.00122     0.77136
      C    7   -1.05296      1.99930     5.03914    0.01452     7.05296
      H    8    0.22768      0.00000     0.77118    0.00114     0.77232
      H    9    0.23116      0.00000     0.76779    0.00105     0.76884
      C   10   -0.65663      1.99922     4.63442    0.02298     6.65663
      H   11    0.21222      0.00000     0.78591    0.00187     0.78778
      H   12    0.22580      0.00000     0.77315    0.00105     0.77420
      C   13   -0.57173      1.99934     4.56055    0.01183     6.57173
      H   14    0.20895      0.00000     0.79008    0.00097     0.79105
      H   15    0.19473      0.00000     0.80362    0.00165     0.80527
      H   16    0.18983      0.00000     0.80885    0.00132     0.81017
      C   17   -0.57153      1.99933     4.56026    0.01194     6.57153
      H   18    0.20148      0.00000     0.79695    0.00157     0.79852
      H   19    0.19680      0.00000     0.80213    0.00107     0.80320
      H   20    0.19293      0.00000     0.80578    0.00129     0.80707
 =======================================================================
   * Total *    0.00000     29.99457    43.85736    0.14807    74.00000

                                 Natural Population      
 --------------------------------------------------------
   Core                      29.99457 ( 99.9819% of  30)
   Valence                   43.85736 ( 99.6758% of  44)
   Natural Minimal Basis     73.85193 ( 99.7999% of  74)
   Natural Rydberg Basis      0.14807 (  0.2001% of  74)
 --------------------------------------------------------

    Atom  No          Natural Electron Configuration
 ----------------------------------------------------------------------------
     Si    1      [core]3S( 0.91)3p( 1.50)3d( 0.03)6p( 0.01)
     Cl    2      [core]3S( 1.89)3p( 5.49)3d( 0.01)
      C    3      [core]2S( 1.19)2p( 3.85)4p( 0.01)
      H    4            1S( 0.77)
      H    5            1S( 0.77)
      H    6            1S( 0.77)
      C    7      [core]2S( 1.19)2p( 3.85)4p( 0.01)
      H    8            1S( 0.77)
      H    9            1S( 0.77)
      C   10      [core]2S( 1.08)2p( 3.55)4S( 0.01)4p( 0.01)
      H   11            1S( 0.79)
      H   12            1S( 0.77)
      C   13      [core]2S( 1.07)2p( 3.50)4p( 0.01)
      H   14            1S( 0.79)
      H   15            1S( 0.80)
      H   16            1S( 0.81)
      C   17      [core]2S( 1.07)2p( 3.49)4p( 0.01)
      H   18            1S( 0.80)
      H   19            1S( 0.80)
      H   20            1S( 0.81)


 NBO analysis skipped by request.
 Calling FoFJK, ICntrl=      2127 FMM=F ISym2X=0 I1Cent= 0 IOpClX= 0 NMat=1 NMatS=1 NMatT=0.
 ***** Axes restored to original set *****
 -------------------------------------------------------------------
 Center     Atomic                   Forces (Hartrees/Bohr)
 Number     Number              X              Y              Z
 -------------------------------------------------------------------
      1       14          -0.001442274   -0.001878714    0.014636977
      2       17          -0.005583787   -0.006626051    0.012626003
      3        6          -0.009769380   -0.012077109   -0.032817107
      4        1          -0.003863631    0.014819092    0.001910644
      5        1          -0.005477976   -0.006976107    0.012484995
      6        1           0.015267427    0.001127120    0.001398029
      7        6           0.035829580    0.002227105   -0.005433264
      8        1          -0.007563915   -0.005838982   -0.011630591
      9        1          -0.006464786    0.013604859   -0.000240687
     10        6          -0.024790723    0.010333847   -0.006096843
     11        1           0.016744017    0.001262743    0.000554370
     12        1          -0.005097408   -0.006833800    0.012762127
     13        6           0.011806944    0.012155982    0.013862961
     14        1           0.004494818    0.002401268   -0.015092742
     15        1           0.000876290   -0.016810770   -0.001511249
     16        1          -0.015454028   -0.001565793   -0.005774381
     17        6           0.009426373    0.016678367   -0.013901466
     18        1           0.004079269   -0.015545959    0.002329989
     19        1           0.002806104    0.002910721    0.016589898
     20        1          -0.015822914   -0.003367818    0.003342336
 -------------------------------------------------------------------
 Cartesian Forces:  Max     0.035829580 RMS     0.011698748

 GradGradGradGradGradGradGradGradGradGradGradGradGradGradGradGradGradGrad
 Berny optimization.
 FormGI is forming the generalized inverse of G from B-inverse, IUseBI=4.
 Internal  Forces:  Max     0.016744922 RMS     0.006835942
 Search for a local minimum.
 Step number   1 out of a maximum of  110
 All quantities printed in internal units (Hartrees-Bohrs-Radians)
 Mixed Optimization -- RFO/linear search
 Second derivative matrix not updated -- first step.
 ITU=  0
     Eigenvalues ---    0.00237   0.00237   0.00239   0.00239   0.00239
     Eigenvalues ---    0.03922   0.04607   0.04607   0.04741   0.05720
     Eigenvalues ---    0.05720   0.05720   0.05720   0.05721   0.05721
     Eigenvalues ---    0.05721   0.05721   0.06515   0.06515   0.16000
     Eigenvalues ---    0.16000   0.16000   0.16000   0.16000   0.16000
     Eigenvalues ---    0.16000   0.16000   0.16000   0.16000   0.16000
     Eigenvalues ---    0.16000   0.16074   0.16074   0.17558   0.17558
     Eigenvalues ---    0.17593   0.17593   0.17593   0.21232   0.28519
     Eigenvalues ---    0.28519   0.37230   0.37230   0.37230   0.37230
     Eigenvalues ---    0.37230   0.37230   0.37230   0.37230   0.37230
     Eigenvalues ---    0.37230   0.37230   0.37230   0.37230
 RFO step:  Lambda=-1.75734890D-02 EMin= 2.36824059D-03
 Linear search not attempted -- first point.
 Iteration  1 RMS(Cart)=  0.05105065 RMS(Int)=  0.00141744
 Iteration  2 RMS(Cart)=  0.00166085 RMS(Int)=  0.00033361
 Iteration  3 RMS(Cart)=  0.00000281 RMS(Int)=  0.00033360
 Iteration  4 RMS(Cart)=  0.00000000 RMS(Int)=  0.00033360
 Variable       Old X    -DE/DX   Delta X   Delta X   Delta X     New X
                                 (Linear)    (Quad)   (Total)
    R1        4.08181  -0.01529   0.00000  -0.06652  -0.06652   4.01529
    R2        3.66607  -0.01664   0.00000  -0.08602  -0.08602   3.58005
    R3        3.66607  -0.01671   0.00000  -0.08637  -0.08637   3.57970
    R4        3.66607  -0.00991   0.00000  -0.05119  -0.05119   3.61487
    R5        2.02201   0.01526   0.00000   0.03915   0.03915   2.06115
    R6        2.02201   0.01531   0.00000   0.03927   0.03927   2.06128
    R7        2.02201   0.01526   0.00000   0.03914   0.03914   2.06115
    R8        2.02201   0.01478   0.00000   0.03791   0.03791   2.05991
    R9        2.02201   0.01498   0.00000   0.03843   0.03843   2.06043
   R10        2.02201   0.01533   0.00000   0.03932   0.03932   2.06133
   R11        2.02201   0.01674   0.00000   0.04295   0.04295   2.06496
   R12        2.91018   0.00816   0.00000   0.02696   0.02696   2.93713
   R13        2.91018   0.00636   0.00000   0.02102   0.02102   2.93119
   R14        2.02201   0.01511   0.00000   0.03875   0.03875   2.06076
   R15        2.02201   0.01652   0.00000   0.04237   0.04237   2.06438
   R16        2.02201   0.01541   0.00000   0.03952   0.03952   2.06153
   R17        2.02201   0.01601   0.00000   0.04107   0.04107   2.06307
   R18        2.02201   0.01584   0.00000   0.04063   0.04063   2.06264
   R19        2.02201   0.01585   0.00000   0.04065   0.04065   2.06266
    A1        1.91063  -0.00163   0.00000  -0.02669  -0.02647   1.88416
    A2        1.91063  -0.00153   0.00000  -0.02667  -0.02647   1.88417
    A3        1.91063  -0.00151   0.00000  -0.01868  -0.01815   1.89248
    A4        1.91063  -0.00001   0.00000   0.01272   0.01143   1.92207
    A5        1.91063   0.00251   0.00000   0.03065   0.02987   1.94050
    A6        1.91063   0.00219   0.00000   0.02868   0.02786   1.93850
    A7        1.91063   0.00293   0.00000   0.01678   0.01672   1.92735
    A8        1.91063  -0.00100   0.00000  -0.00666  -0.00663   1.90400
    A9        1.91063   0.00216   0.00000   0.01295   0.01288   1.92352
   A10        1.91063  -0.00122   0.00000  -0.00841  -0.00837   1.90226
   A11        1.91063  -0.00221   0.00000  -0.01037  -0.01053   1.90011
   A12        1.91063  -0.00067   0.00000  -0.00430  -0.00428   1.90636
   A13        1.91063   0.00385   0.00000   0.02337   0.02331   1.93394
   A14        1.91063   0.00149   0.00000   0.00724   0.00718   1.91781
   A15        1.91063  -0.00096   0.00000  -0.00592  -0.00592   1.90472
   A16        1.91063  -0.00251   0.00000  -0.01308  -0.01321   1.89742
   A17        1.91063  -0.00107   0.00000  -0.00371  -0.00372   1.90692
   A18        1.91063  -0.00081   0.00000  -0.00790  -0.00789   1.90275
   A19        1.91063  -0.00206   0.00000  -0.03534  -0.03515   1.87548
   A20        1.91063   0.00342   0.00000   0.03402   0.03347   1.94410
   A21        1.91063  -0.00124   0.00000   0.00630   0.00502   1.91565
   A22        1.91063  -0.00178   0.00000  -0.01866  -0.01814   1.89249
   A23        1.91063  -0.00001   0.00000  -0.01371  -0.01365   1.89699
   A24        1.91063   0.00167   0.00000   0.02740   0.02671   1.93734
   A25        1.91063   0.00531   0.00000   0.03156   0.03105   1.94169
   A26        1.91063   0.00259   0.00000   0.01242   0.01224   1.92288
   A27        1.91063   0.00655   0.00000   0.03737   0.03687   1.94750
   A28        1.91063  -0.00410   0.00000  -0.02399  -0.02416   1.88647
   A29        1.91063  -0.00524   0.00000  -0.02521  -0.02599   1.88465
   A30        1.91063  -0.00511   0.00000  -0.03216  -0.03232   1.87832
   A31        1.91063   0.00111   0.00000   0.00233   0.00230   1.91293
   A32        1.91063   0.00790   0.00000   0.04778   0.04715   1.95778
   A33        1.91063   0.00473   0.00000   0.02726   0.02671   1.93734
   A34        1.91063  -0.00472   0.00000  -0.02786  -0.02798   1.88265
   A35        1.91063  -0.00397   0.00000  -0.02891  -0.02885   1.88179
   A36        1.91063  -0.00505   0.00000  -0.02061  -0.02167   1.88896
    D1        1.04720  -0.00036   0.00000  -0.00742  -0.00731   1.03989
    D2        3.14159  -0.00066   0.00000  -0.01152  -0.01146   3.13013
    D3       -1.04720  -0.00077   0.00000  -0.01293  -0.01292  -1.06012
    D4       -1.04720   0.00253   0.00000   0.03380   0.03393  -1.01327
    D5        1.04720   0.00222   0.00000   0.02970   0.02978   1.07697
    D6        3.14159   0.00212   0.00000   0.02829   0.02832  -3.11328
    D7       -3.14159  -0.00168   0.00000  -0.02788  -0.02796   3.11363
    D8       -1.04720  -0.00198   0.00000  -0.03198  -0.03211  -1.07931
    D9        1.04720  -0.00209   0.00000  -0.03339  -0.03357   1.01363
   D10        1.04720   0.00040   0.00000   0.00489   0.00487   1.05207
   D11       -1.04720   0.00020   0.00000   0.00217   0.00208  -1.04512
   D12        3.14159   0.00086   0.00000   0.01104   0.01099  -3.13060
   D13        3.14159  -0.00255   0.00000  -0.03634  -0.03637   3.10523
   D14        1.04720  -0.00275   0.00000  -0.03906  -0.03916   1.00804
   D15       -1.04720  -0.00209   0.00000  -0.03019  -0.03025  -1.07745
   D16       -1.04720   0.00186   0.00000   0.02655   0.02669  -1.02050
   D17        3.14159   0.00165   0.00000   0.02382   0.02390  -3.11769
   D18        1.04720   0.00232   0.00000   0.03269   0.03281   1.08001
   D19        1.04720   0.00039   0.00000   0.01079   0.01066   1.05785
   D20       -1.04720   0.00173   0.00000   0.03446   0.03459  -1.01261
[...]
 ,0.00036225,-0.00004496,0.00021223,0.00022017,0.00016995,-0.00008176,-
 0.00009234,-0.00022035,0.00010553,0.00031854,-0.00000071,-0.03998614,-
 0.09243137,-0.09529144,0.04446721,0.10006877,0.00096120,0.00033149,-0.
 00175858,-0.00021054,0.00001412,0.00043259,0.00009590,0.00009652,0.000
 52613,0.00000090,-0.00005229,-0.00005517,0.00014098,0.00003989,0.00020
 277,0.00007726,-0.00012192,0.00012016,-0.07674705,-0.09686609,-0.22730
 389,0.08473831,0.10682590,0.24734195,-0.00501025,0.02333922,0.00000269
 ,0.00113397,-0.00107879,-0.00034591,0.00149076,-0.00114792,0.00034491,
 -0.00043498,-0.00058954,-0.00067960,0.00002540,0.00002434,0.00015446,0
 .00023329,-0.00007523,0.00049710,-0.06047760,0.08651534,-0.00102471,0.
 00242291,-0.01203774,0.00073543,0.06259079,-0.00111247,-0.00203346,0.0
 0012101,0.00015305,0.00055718,-0.00036585,0.00033261,0.00017438,0.0001
 5180,-0.00001386,0.00014466,0.00004716,-0.00000328,-0.00003165,-0.0000
 4098,0.00003607,0.00011872,0.00006056,0.07230306,-0.28756800,0.0028859
 9,0.00422646,-0.01290292,0.00074129,-0.07970634,0.31347362,-0.00007034
 ,0.00133329,-0.00160709,0.00007607,0.00014073,-0.00028772,0.00036059,-
 0.00008883,-0.00019062,-0.00028322,-0.00019040,-0.00001056,-0.00012079
 ,0.00007591,-0.00003716,0.00009600,-0.00008902,0.00005145,-0.00125488,
 0.00399452,-0.04207401,0.00907380,-0.02603525,0.00056306,0.00114412,-0
 .00341037,0.04346773,-0.04921507,0.03211611,-0.00104187,0.00113454,-0.
 00726829,0.00428833,0.00526405,-0.00721313,-0.00082503,-0.00060213,-0.
 00128701,-0.00236799,-0.00014944,-0.00012316,-0.00052042,0.00033033,0.
 00057134,0.00101735,-0.00144179,0.01690892,0.00001514,0.00072646,-0.00
 042154,-0.00043011,-0.00516506,-0.00038133,-0.00028352,0.50973052,0.02
 869742,-0.12173453,-0.00632450,0.00113808,-0.00384103,0.00167309,0.003
 12231,-0.00348885,0.00115320,-0.00035368,-0.00004227,-0.00110400,0.000
 06751,-0.00005938,-0.00045412,0.00005277,0.00027133,0.00054700,-0.0016
 5065,0.00313969,-0.00005241,0.00038069,-0.00012708,0.00005599,-0.00122
 700,0.00052548,-0.00012262,0.02215125,0.38931232,-0.00096913,-0.006218
 57,-0.03379638,-0.00024107,0.01273557,-0.00517448,0.00416901,-0.013547
 47,0.00324292,-0.00142924,-0.00169762,-0.00378509,0.00056558,0.0007925
 1,0.00026665,0.00000856,0.00052831,0.00062013,-0.00043348,0.00044655,0
 .00365463,0.00088737,-0.00005033,-0.00009411,-0.00028472,0.00004007,0.
 00019380,-0.00176208,0.00558046,0.39843206,-0.01133839,-0.00077579,0.0
 0029153,0.00112320,0.00005748,-0.00023003,0.00052760,0.00019125,-0.000
 03008,0.00020714,0.00002258,-0.00005125,0.00002925,-0.00013118,-0.0001
 6341,0.00034244,0.00035105,0.00040235,0.00031661,0.00177450,0.00016087
 ,0.00020735,-0.00010072,-0.00000843,-0.00055200,-0.00001177,-0.0000210
 0,-0.29485035,-0.01574745,0.00604981,0.31805196,0.02207096,0.00141943,
 -0.00013997,-0.00109249,0.00088022,-0.00042827,-0.00133332,0.00087197,
 0.00025773,-0.00016028,0.00018546,0.00040458,0.00002583,0.00010246,0.0
 0024636,-0.00038322,-0.00053380,-0.00064341,0.00064982,-0.00516333,-0.
 00011445,-0.00027921,0.00008857,0.00013966,0.00178283,0.00004159,0.000
 09711,0.00038441,-0.04157112,-0.00029072,0.01725233,0.04827219,0.00034
 262,0.00036951,-0.00046232,0.00012660,-0.00005334,-0.00020783,0.000021
 19,0.00015226,-0.00017889,-0.00011275,0.00004421,0.00005188,0.00004576
 ,-0.00003448,0.00001714,-0.00013277,-0.00027877,-0.00006206,-0.0000498
 2,0.00000565,0.00025329,0.00014193,-0.00009893,0.00002797,-0.00000360,
 0.00000743,0.00011650,0.00642827,0.00015768,-0.04268262,-0.00643630,-0
 .00027950,0.05442869,-0.00624713,-0.00999317,0.01759501,-0.00441238,-0
 .00079273,0.00161812,0.00120636,0.00067645,-0.00103507,0.00006390,0.00
 016403,0.00018513,-0.00043476,-0.00029401,-0.00081063,0.00018044,0.000
 39414,0.00001630,-0.09251242,-0.05766801,0.10207032,0.00449314,0.00641
 367,-0.00960125,0.00344229,0.00415216,-0.00877526,0.00063329,0.0004859
 6,-0.00094637,0.00014524,-0.00024355,-0.00013919,0.09344782,0.00085921
 ,-0.00104214,-0.00176731,0.00053104,0.00082985,-0.00025106,-0.00017061
 ,-0.00011392,-0.00012384,-0.00005449,0.00000650,0.00008925,-0.00011767
 ,0.00011821,-0.00015954,0.00002196,0.00000431,-0.00014375,-0.04959522,
 -0.09161325,0.08883292,0.00753743,0.00599127,-0.01095722,-0.01495608,-
 0.01269345,0.02439638,-0.00039928,-0.00015228,0.00023662,-0.00005431,0
 .00008490,0.00006891,0.05599373,0.09903197,-0.00106028,-0.00105730,-0.
 00034600,-0.00061855,-0.00017021,0.00107763,0.00063934,0.00002908,-0.0
 0027006,-0.00007698,-0.00001875,0.00001422,-0.00023629,-0.00009180,-0.
 00000236,0.00009997,0.00010164,0.00012967,0.08843268,0.08940504,-0.202
 17618,0.01265746,0.01233203,-0.02000526,-0.00046314,-0.00026302,-0.000
 51507,0.00061836,-0.00003336,-0.00006440,0.00001710,-0.00016550,0.0000
 1576,-0.09975052,-0.10028286,0.22208024,0.00291916,0.00084119,0.006362
 27,0.00010747,0.00020010,-0.00003805,-0.00096487,0.00272701,-0.0002907
 3,0.00050865,0.00046112,0.00073910,-0.00004424,-0.00021259,-0.00010014
 ,0.00013936,0.00005758,-0.00002529,-0.00019293,-0.00020494,-0.00004424
 ,-0.00031687,0.00039100,-0.00037504,-0.00016670,-0.00019432,-0.0001657
 8,-0.08342506,-0.01307969,-0.01906743,-0.01036332,-0.01821423,-0.02912
 189,0.00003813,0.00010507,0.00017146,0.54525745,-0.00533283,-0.0133199
 6,-0.01696968,-0.00003368,0.00007026,-0.00000328,0.00166038,-0.0041128
 0,0.00062057,-0.00052481,-0.00056486,-0.00135885,0.00018223,0.00007047
 ,-0.00006292,-0.00002836,0.00017596,0.00028597,0.00013986,0.00120025,0
 .00140867,0.00023465,-0.00011230,-0.00038446,-0.00060516,-0.00001223,-
 0.00010138,-0.02313183,-0.09922594,-0.05232275,-0.00023861,-0.00223598
 ,-0.00270882,-0.00011861,0.00000043,-0.00004532,-0.01196107,0.52559750
 ,0.00270481,-0.00897705,0.00025822,0.00023947,0.00067619,-0.00152599,-
 0.00063848,0.00192481,0.00007618,0.00006444,0.00037597,0.00061310,-0.0
 0009271,0.00002243,0.00009740,-0.00007543,-0.00016322,-0.00020738,-0.0
 0018818,0.00123270,-0.00005077,0.00002183,-0.00003167,-0.00002646,-0.0
 0051367,0.00001317,0.00008615,-0.02478795,-0.03266660,-0.13612418,-0.0
 0126533,-0.00173780,-0.00215614,0.00001710,-0.00000394,0.00006953,-0.0
 2911637,-0.05330948,0.49215151,0.00056699,-0.00029367,0.00063422,-0.00
 026405,-0.00019492,-0.00021350,-0.00006330,0.00007736,-0.00005043,-0.0
 0000317,0.00001546,0.00003521,-0.00000734,0.00000221,0.00000333,-0.000
 01631,-0.00002127,-0.00003321,0.00006611,0.00015511,-0.00006505,-0.000
 20141,-0.00005425,0.00009005,0.00000736,0.00002783,-0.00003670,0.00211
 151,0.00616802,-0.00815425,0.00028286,0.00057217,0.00018030,0.00005961
 ,-0.00008345,-0.00011904,-0.06867351,-0.03525350,0.06185118,0.07003350
 ,0.00083387,0.00017766,-0.00184427,-0.00023499,-0.00070367,0.00017386,
 -0.00010667,0.00008945,0.00014037,0.00000473,0.00001914,0.00002905,0.0
 0000214,0.00002424,0.00007211,-0.00000096,-0.00000782,-0.00003059,-0.0
 0007045,-0.00009856,0.00014075,0.00004740,0.00001104,0.00002462,0.0000
 3298,0.00000130,0.00001702,0.00652405,0.00879958,-0.01379426,0.0000853
 8,0.00055160,0.00074754,-0.00008712,0.00002133,0.00001724,-0.03589138,
 -0.10807763,0.10553178,0.03973757,0.11594630,0.00074055,0.00121385,-0.
 00265087,-0.00017572,0.00047779,0.00111330,-0.00002706,-0.00017113,0.0
 0015357,-0.00000922,-0.00006645,-0.00000228,-0.00000591,0.00007846,0.0
 0012488,0.00000813,0.00002620,-0.00001891,0.00000598,-0.00039355,0.000
 20174,0.00013089,0.00000440,-0.00003675,0.00010362,-0.00001706,0.00001
 933,0.00799496,0.01166567,-0.01916364,-0.00040400,0.00034685,0.0007306
 5,-0.00015037,0.00005560,0.00004999,0.06111097,0.10391151,-0.22763109,
 -0.06658863,-0.11271450,0.24956647,-0.00083910,-0.00056436,-0.00148743
 ,0.00008648,0.00002394,-0.00005309,0.00031468,-0.00060685,0.00002624,-
 0.00007742,-0.00011174,-0.00016837,0.00000964,0.00003858,0.00002365,0.
 00001582,0.00003782,0.00005806,0.00004901,0.00004879,-0.00006434,0.000
 31103,-0.00012858,0.00020148,0.00010177,0.00008159,0.00015651,0.004411
 35,-0.01077645,-0.00185284,0.00086601,-0.00035045,0.00066130,-0.000024
 40,-0.00001128,0.00000829,-0.08954598,0.09543223,0.00151408,0.00376710
 ,-0.00932487,-0.00067846,0.09392931,-0.00185241,0.00162097,-0.00144469
 ,-0.00005165,-0.00024309,0.00011281,0.00048009,-0.00097077,0.00013604,
 -0.00012591,-0.00012273,-0.00036106,0.00002702,0.00000733,-0.00006652,
 -0.00001502,0.00004455,0.00006767,0.00014752,-0.00008284,0.00005058,-0
 .00000271,-0.00000146,0.00005126,0.00007884,0.00000446,0.00002924,0.00
 467178,-0.01711443,-0.00394224,-0.00037797,0.00052345,0.00035665,0.000
 00181,-0.00001280,-0.00003720,0.09592727,-0.25766663,0.00032638,0.0064
 6161,-0.01384381,0.00005214,-0.10404794,0.28178694,-0.00169482,0.00050
 701,-0.00412646,-0.00000136,0.00006065,0.00077112,0.00053383,-0.001537
 37,0.00030393,-0.00019761,-0.00025345,-0.00047980,0.00007159,0.0000626
 8,0.00001669,-0.00001059,0.00006656,0.00008982,0.00004472,-0.00011509,
 0.00024399,0.00021029,-0.00001415,0.00002153,0.00006156,0.00001904,0.0
 0005505,0.00984775,-0.02714889,-0.00529662,0.00035557,0.00094305,0.001
 21528,-0.00005745,0.00001971,0.00001619,0.00153738,-0.00027207,-0.0452
 8991,-0.01238506,0.02410687,0.00086594,0.00104833,0.00394357,0.0501921
 5,-0.00147741,0.00100362,-0.00021592,0.00019840,-0.00026210,0.00001286
 ,0.00025062,-0.00028665,-0.00002852,-0.00001824,-0.00006072,-0.0000868
 0,0.00000125,0.00000293,-0.00001860,0.00005088,0.00007256,0.00009269,0
 .00003840,-0.00006026,-0.00017618,0.00023604,0.00019135,0.00038826,0.0
 0022575,0.00010386,0.00016699,-0.00823531,-0.00241200,-0.00094486,0.00
 104544,-0.00123226,-0.00167887,0.00001263,-0.00003271,-0.00003496,-0.2
 9917658,-0.02515207,-0.00163044,-0.00819354,-0.00025014,0.00014292,-0.
 01328349,-0.00105138,0.00044262,0.32709985,-0.00252699,0.00012500,-0.0
 0020786,0.00029777,-0.00018955,-0.00001743,0.00028775,-0.00006297,-0.0
 0002989,0.00002775,-0.00002807,-0.00002571,-0.00001544,-0.00000595,-0.
 00001531,0.00008693,0.00009074,0.00010955,0.00000855,0.00032760,-0.000
 17400,0.00056766,-0.00055878,-0.00000529,-0.00002117,0.00013061,0.0001
 9401,-0.01693924,-0.00330159,-0.00001033,-0.00107589,-0.00121176,-0.00
 318702,0.00003707,-0.00000420,0.00006357,-0.02475002,-0.04930210,0.000
 31002,-0.01601039,-0.00191704,-0.00098043,0.03015065,0.00367519,-0.000
 05943,0.02888888,0.05174990,-0.00098796,0.00030418,0.00021044,-0.00003
 781,0.00008843,0.00009502,0.00003474,-0.00001942,-0.00001687,0.0000485
 4,-0.00000888,-0.00001583,0.00000879,-0.00001692,-0.00002193,0.0000650
 8,0.00006260,0.00005777,0.00010222,0.00012556,0.00006583,0.00001169,-0
 .00020279,0.00002358,0.00003113,0.00005412,-0.00001396,-0.02678366,-0.
 00299808,-0.00105692,-0.00192875,-0.00305350,-0.00453139,0.00013023,-0
 .00011396,-0.00011114,-0.00124603,0.00080239,-0.04704220,0.02727231,0.
 00110799,0.00128841,-0.00042013,0.00027574,-0.00086984,0.00380313,0.00
 344500,0.05007922,0.00212082,0.00073264,-0.00497448,0.00058211,0.00231
 036,-0.00138465,-0.00060545,0.00028271,0.00046652,0.00014467,0.0001251
 2,-0.00013276,0.00025879,0.00004828,-0.00026051,0.00004105,-0.00002021
 ,-0.00002296,-0.00036072,-0.00014498,0.00035198,0.00010797,0.00005649,
 -0.00010519,-0.00018834,-0.00014921,0.00015871,-0.08094706,-0.01080919
 ,0.01448731,-0.00839978,-0.01844580,0.02925364,-0.00053601,0.00036252,
 0.00027455,0.00334333,0.00542211,-0.00848086,-0.00030202,-0.00112994,-
 0.00266393,-0.00003185,-0.00021657,0.00070502,0.00069954,0.00056775,-0
 .00110105,0.54621193,-0.00382387,-0.01231719,0.01579941,-0.00004580,-0
 .00398261,0.00211595,0.00029303,0.00124147,-0.00151502,0.00011818,0.00
 032429,0.00044872,-0.00015127,-0.00067965,-0.00005129,-0.00012917,-0.0
 0009010,0.00012182,0.00068629,0.00114523,-0.00150038,-0.00018699,-0.00
 009411,0.00009188,-0.00044554,-0.00001761,-0.00001540,-0.02094497,-0.0
 9925832,0.05281227,-0.00006388,-0.00219959,0.00255570,0.00026154,-0.00
 028577,0.00035061,0.00454673,0.00769810,-0.01346425,-0.00111390,-0.001
 89886,-0.00422753,-0.00007209,0.00137834,-0.00176616,0.00019191,0.0002
 5045,-0.00000264,-0.01015632,0.51909767,-0.00279562,0.00960418,-0.0003
 6144,-0.00005037,-0.00233816,0.00166684,0.00003450,-0.00061952,0.00014
 121,-0.00012695,-0.00003565,-0.00060508,0.00042920,-0.00016007,-0.0005
 8144,-0.00005614,-0.00009318,0.00019034,0.00016890,-0.00120980,-0.0000
 6671,-0.00003774,-0.00000975,0.00006153,0.00049902,0.00001214,0.000105
 28,0.02122032,0.03111440,-0.13408111,0.00149601,0.00265783,-0.00396929
 ,-0.00001966,0.00005115,-0.00013493,0.00654781,0.01406355,-0.03334076,
 -0.00167725,-0.00254942,-0.00379132,0.00054938,0.00138539,0.00207553,0
 .00063138,0.00084773,0.00188986,0.02640609,0.05388789,0.48563631,-0.00
 062678,-0.00053424,0.00119536,0.00006163,-0.00046105,0.00023339,0.0001
 6184,-0.00000978,-0.00006221,-0.00001004,-0.00000039,0.00004617,-0.000
 08290,-0.00004963,0.00000531,0.00001383,0.00003867,-0.00000625,-0.0000
 0313,-0.00007426,0.00000813,-0.00003908,0.00001706,-0.00002898,0.00012
 077,0.00004982,-0.00011760,0.00395988,-0.00945885,0.00119942,0.0007192
 0,-0.00041279,-0.00065662,0.00030208,-0.00004847,-0.00016013,-0.000017
 72,0.00004352,-0.00050805,-0.00008598,-0.00022900,-0.00012574,0.000131
 55,0.00018079,-0.00029714,-0.00014332,0.00018900,0.00001927,-0.0844978
 2,0.09113723,0.00326803,0.08828404,-0.00171336,0.00200985,0.00109403,-
 0.00002445,-0.00091669,0.00070630,0.00021928,-0.00019300,-0.00026355,-
 0.00003390,-0.00004978,-0.00000797,-0.00005969,-0.00001155,0.00009508,
 -0.00000630,0.00001786,0.00004905,0.00021696,-0.00015018,-0.00011675,-
 0.00002509,-0.00000241,0.00003110,0.00009952,-0.00000244,-0.00002127,0
 .00461286,-0.01782217,0.00380955,-0.00038790,0.00055624,-0.00036945,0.
 00005440,-0.00002105,-0.00002993,-0.00026585,0.00143347,-0.00148563,-0
 .00030517,0.00025288,-0.00010414,0.00024053,0.00073523,0.00104549,0.00
 004281,-0.00001929,0.00005652,0.09185054,-0.26250305,-0.01178355,-0.09
 931179,0.28687253,0.00145737,-0.00071752,-0.00352774,0.00010867,0.0014
 7429,-0.00070771,-0.00000426,-0.00012441,0.00016811,-0.00006068,-0.000
 05177,0.00018030,-0.00008163,0.00019679,0.00039808,-0.00001675,0.00000
 212,-0.00004416,-0.00016435,0.00015294,0.00035506,0.00008113,-0.000005
 10,0.00000814,-0.00009671,-0.00001274,0.00004893,-0.00942555,0.0281365
 1,-0.00422232,-0.00034908,-0.00095100,0.00120372,-0.00021553,0.0000515
 7,0.00000460,-0.00063866,0.00181674,0.00222704,0.00022715,-0.00022110,
 0.00038016,0.00038410,-0.00100909,-0.00009544,-0.00001390,-0.00009329,
 -0.00014845,0.00305127,-0.01085632,-0.04467813,-0.00601118,0.00844475,
 0.05031671,0.00033816,-0.00032882,-0.00107674,-0.00005664,0.00011643,0
 .00007606,0.00021305,-0.00005293,-0.00017382,-0.00015245,-0.00006869,0
 .00014751,0.00000826,0.00015725,0.00031044,-0.00014086,-0.00013265,0.0
 0001033,0.00004717,0.00024568,0.00010944,0.00005493,-0.00007626,0.0000
 9208,-0.00001563,0.00004089,-0.00000063,0.00226434,0.00541816,0.007551
 90,0.00036814,0.00052103,-0.00021260,-0.00004927,-0.00009166,-0.000065
 28,-0.00014053,-0.00092411,0.00142619,0.00057411,0.00002996,0.00050487
 ,-0.00006874,-0.00025618,-0.00021065,0.00038134,0.00005692,0.00034397,
 -0.07928846,-0.04070711,-0.07461194,0.00445869,0.00553978,0.01139292,0
 .08145895,0.00076836,-0.00038728,0.00159410,0.00000903,0.00023022,-0.0
 0031919,-0.00003139,-0.00006359,-0.00013460,0.00001345,0.00007206,0.00
 002767,0.00001931,-0.00056429,-0.00008723,-0.00005443,-0.00001663,-0.0
 0006473,-0.00006020,-0.00010383,-0.00007265,-0.00005733,0.00002698,-0.
 00001288,0.00003454,0.00000346,-0.00001610,0.00786125,0.00836774,0.013
 93015,0.00011580,0.00061144,-0.00082848,0.00000992,0.00000526,-0.00002
 587,-0.00105055,-0.00182770,0.00234713,0.00007210,0.00080259,0.0009459
 1,-0.00022707,0.00029509,0.00030072,0.00004785,-0.00016877,-0.00003812
 ,-0.04127662,-0.09952937,-0.09565444,-0.01159639,-0.01322704,-0.024396
 45,0.04561123,0.10730106,-0.00067904,-0.00080853,-0.00253484,0.0000433
 1,0.00011598,0.00034373,0.00028147,-0.00041736,0.00001888,-0.00004739,
 -0.00014785,0.00026290,-0.00023686,-0.00008039,0.00067637,0.00009848,0
 .00019507,0.00001305,0.00000818,0.00041237,0.00021567,0.00016181,-0.00
 005738,0.00004790,-0.00010825,0.00002163,0.00000544,-0.00963676,-0.011
 50235,-0.01850451,0.00052990,-0.00041042,0.00077794,-0.00005723,-0.000
 01524,-0.00001418,0.00253236,0.00463065,-0.00402209,-0.00061724,-0.001
 00753,-0.00146642,0.00013394,0.00010472,0.00041011,-0.00008208,0.00009
 686,0.00031502,-0.07409918,-0.09514380,-0.22159873,-0.00007620,-0.0010
 5645,-0.00105527,0.08137446,0.10326678,0.24325722,-0.00146208,0.000852
 01,0.00049849,0.00016329,-0.00023403,0.00010503,0.00024542,-0.00033936
 ,0.00002543,-0.00000457,-0.00006326,-0.00005267,-0.00009102,-0.0000330
 2,-0.00004928,0.00008621,0.00013462,0.00002954,0.00003115,-0.00029432,
 0.00010725,-0.00001481,0.00001828,-0.00001526,0.00021549,0.00006519,-0
 .00010307,-0.00653500,-0.00216720,0.00116652,0.00127139,-0.00111177,0.
 00134280,0.00019145,0.00020429,-0.00033403,0.00071477,0.00018965,-0.00
 054164,0.00034152,0.00002746,0.00008614,-0.00012277,0.00002101,-0.0000
 0399,0.00028775,0.00017247,0.00063427,-0.29835268,-0.01939401,0.018125
 04,-0.01270673,-0.00074319,0.00037568,-0.01025455,-0.00020887,0.000476
 32,0.32599578,-0.00263479,-0.00020942,0.00070408,0.00033565,0.00000867
 ,-0.00013849,0.00028507,-0.00022607,0.00006551,0.00003205,-0.00004757,
 -0.00007251,-0.00006416,-0.00003678,-0.00011410,0.00010555,0.00016943,
 0.00006077,0.00000348,0.00026779,0.00010767,0.00002229,0.00002108,-0.0
 0004357,-0.00001711,0.00008628,-0.00018756,-0.01769221,-0.00267717,0.0
 0096225,-0.00088488,-0.00127396,0.00337323,0.00055232,-0.00015517,-0.0
 0007808,0.00056758,0.00021170,-0.00092092,0.00004107,-0.00014970,-0.00
 010360,0.00016757,-0.00001301,0.00009126,0.00025451,0.00042057,0.00013
 177,-0.01940968,-0.04827931,0.00082926,0.03053057,0.00304061,-0.001836
 91,-0.01509891,-0.00182740,0.00180322,0.02290403,0.05066943,0.00122962
 ,-0.00013082,0.00006665,-0.00020005,-0.00000752,0.00000266,-0.00008486
 ,0.00002546,0.00006185,0.00004863,-0.00000335,0.00005324,-0.00009024,0
 .00001676,-0.00000095,0.00004784,0.00003486,-0.00008432,-0.00012924,-0
 .00004163,0.00000009,-0.00006214,0.00008115,-0.00009710,-0.00005373,-0
 .00006540,0.00002346,0.02643443,0.00232294,-0.00236380,0.00158452,0.00
 312138,-0.00458827,-0.00007367,0.00001660,0.00018173,0.00122830,-0.000
 00105,0.00183781,-0.00035340,0.00005246,0.00026685,-0.00004069,-0.0000
 3138,-0.00011927,-0.00076972,-0.00026076,-0.00019664,0.01807046,0.0003
 5855,-0.04855797,0.00207502,-0.00009320,-0.00081164,-0.02698851,-0.000
 76173,0.00285178,-0.02187258,-0.00463330,0.05147384\\-0.00000645,-0.00
 000314,0.00000464,0.00001077,-0.00000206,-0.00000349,-0.00000065,-0.00
 000847,0.00001139,0.00000064,0.00000342,-0.00000691,-0.00000139,0.0000
 0465,-0.00000295,0.00000102,-0.00000149,-0.00000222,-0.00000138,0.0000
 0850,-0.00000413,0.00000581,0.00000074,-0.00000729,0.00000617,0.000002
 21,-0.00000917,0.00000851,-0.00000180,-0.00001506,-0.00000153,0.000001
 56,0.00000645,0.00000305,0.00000448,-0.00000386,-0.00000122,-0.0000033
 2,0.00000944,0.00000490,-0.00000284,0.00000324,0.00000021,-0.00000418,
 0.00000489,-0.00000007,0.00000026,0.00000052,-0.00001029,-0.00000458,0
 .00001263,-0.00000625,0.00000027,0.00000258,-0.00000529,0.00000398,-0.
 00000045,-0.00000656,0.00000180,-0.00000026\\\@


 WE HAVE SEEN THAT MAN ON THE AVERAGE DOES NOT LIVE ABOVE
 TWO-AND-TWENTY YEARS.  DURING THESE TWO AND TWENTY
 YEARS HE IS LIABLE TO TWO AND TWENTY THOUSAND EVILS,
 MANY OF WHICH ARE INCURABLE.  YET EVEN IN THIS DREADFUL STATE
 MEN STILL STRUT AND POSE ON THE STAGE OF LIFE.
 THEY MAKE LOVE AT THE RISK OF DESTRUCTION,
 INTRIGUE, CARRY ON WAR, AND FORM PROJECTS, JUST AS IF THEY
 WERE TO LIVE IN LUXURY AND HAPPINESS FOR A THOUSAND
 AGES.

                                              -- VOLTAIRE
 Job cpu time:       0 days  0 hours 24 minutes 35.2 seconds.
 File lengths (MBytes):  RWF=    173 Int=      0 D2E=      0 Chk=      6 Scr=      1
 Normal termination of Gaussian 09 at Mon Jan  9 17:34:16 2023.
