 Entering Gaussian System, Link 0=g09
 Initial command:
 /cm/shared/apps/gaussian/g09revD.01/g09/l1.exe "//home/sweav003/CHB/CHActivation_Mkhalid/OtherCharges/G09-Table13_2.com.o9486424.tmp/Gau-43021.inp" -scrdir="//home/sweav003/CHB/CHActivation_Mkhalid/OtherCharges/G09-Table13_2.com.o9486424.tmp/"
 Entering Link 1 = /cm/shared/apps/gaussian/g09revD.01/g09/l1.exe PID=     43022.
  
 Copyright (c) 1988,1990,1992,1993,1995,1998,2003,2009,2013,
            Gaussian, Inc.  All Rights Reserved.
  
 This is part of the Gaussian(R) 09 program.  It is based on
 the Gaussian(R) 03 system (copyright 2003, Gaussian, Inc.),
 the Gaussian(R) 98 system (copyright 1998, Gaussian, Inc.),
 the Gaussian(R) 94 system (copyright 1995, Gaussian, Inc.),
 the Gaussian 92(TM) system (copyright 1992, Gaussian, Inc.),
 the Gaussian 90(TM) system (copyright 1990, Gaussian, Inc.),
 the Gaussian 88(TM) system (copyright 1988, Gaussian, Inc.),
 the Gaussian 86(TM) system (copyright 1986, Carnegie Mellon
 University), and the Gaussian 82(TM) system (copyright 1983,
 Carnegie Mellon University). Gaussian is a federally registered
 trademark of Gaussian, Inc.
  
 This software contains proprietary and confidential information,
 including trade secrets, belonging to Gaussian, Inc.
  
 This software is provided under written license and may be
 used, copied, transmitted, or stored only in accord with that
 written license.
  
 The following legend is applicable only to US Government
 contracts under FAR:
  
                    RESTRICTED RIGHTS LEGEND
  
 Use, reproduction and disclosure by the US Government is
 subject to restrictions as set forth in subparagraphs (a)
 and (c) of the Commercial Computer Software - Restricted
 Rights clause in FAR 52.227-19.
  
 Gaussian, Inc.
 340 Quinnipiac St., Bldg. 40, Wallingford CT 06492
  
  
 ---------------------------------------------------------------
 Warning -- This program may not be used in any manner that
 competes with the business of Gaussian, Inc. or will provide
 assistance to any competitor of Gaussian, Inc.  The licensee
 of this program is prohibited from giving any competitor of
 Gaussian, Inc. access to this program.  By using this program,
 the user acknowledges that Gaussian, Inc. is engaged in the
 business of creating and licensing software in the field of
 computational chemistry and represents and warrants to the
 licensee that it is not a competitor of Gaussian, Inc. and that
 it will not use this program in any manner prohibited above.
 ---------------------------------------------------------------
  

 Cite this work as:
 Gaussian 09, Revision D.01,
 M. J. Frisch, G. W. Trucks, H. B. Schlegel, G. E. Scuseria, 
 M. A. Robb, J. R. Cheeseman, G. Scalmani, V. Barone, B. Mennucci, 
 G. A. Petersson, H. Nakatsuji, M. Caricato, X. Li, H. P. Hratchian, 
 A. F. Izmaylov, J. Bloino, G. Zheng, J. L. Sonnenberg, M. Hada, 
 M. Ehara, K. Toyota, R. Fukuda, J. Hasegawa, M. Ishida, T. Nakajima, 
 Y. Honda, O. Kitao, H. Nakai, T. Vreven, J. A. Montgomery, Jr., 
 J. E. Peralta, F. Ogliaro, M. Bearpark, J. J. Heyd, E. Brothers, 
 K. N. Kudin, V. N. Staroverov, T. Keith, R. Kobayashi, J. Normand, 
 K. Raghavachari, A. Rendell, J. C. Burant, S. S. Iyengar, J. Tomasi, 
 M. Cossi, N. Rega, J. M. Millam, M. Klene, J. E. Knox, J. B. Cross, 
 V. Bakken, C. Adamo, J. Jaramillo, R. Gomperts, R. E. Stratmann, 
 O. Yazyev, A. J. Austin, R. Cammi, C. Pomelli, J. W. Ochterski, 
 R. L. Martin, K. Morokuma, V. G. Zakrzewski, G. A. Voth, 
 P. Salvador, J. J. Dannenberg, S. Dapprich, A. D. Daniels, 
 O. Farkas, J. B. Foresman, J. V. Ortiz, J. Cioslowski, 
 and D. J. Fox, Gaussian, Inc., Wallingford CT, 2013.
 
 ******************************************
 Gaussian 09:  ES64L-G09RevD.01 24-Apr-2013
                 2-Aug-2021 
 ******************************************
 %mem=200MW
 %nprocshared=24
 Will use up to   24 processors via shared memory.
 --------------------------------------------------------------
 # b3lyp/6-311+g(d,p) geom=connectivity pop=(hirshfeld,mbs,npa)
 --------------------------------------------------------------
 1/38=1,57=2/1;
 2/12=2,17=6,18=5,40=1/2;
 3/5=4,6=6,7=111,11=2,16=1,25=1,30=1,74=-5/1,2,3;
 4//1;
 5/5=2,38=5/2;
 6/7=2,8=2,9=2,10=2,27=100,28=1,40=-1,79=1/1,7;
 99/5=1,9=1/99;
 ---------
 Table13_2
 ---------
 Symbolic Z-matrix:
 Charge =  0 Multiplicity = 1
 6                     0.23884   0.21252   0.00108 
 6                    -0.11804   1.5564    0.00775 
 6                    -1.47387   1.87927   0.00232 
 6                    -2.4425    0.87865  -0.00841 
 6                    -2.07821  -0.47177  -0.01149 
 6                    -0.71697  -0.79759  -0.00988 
 1                     0.63925   2.32914   0.01284 
 1                    -1.77209   2.92173   0.00273 
 1                    -3.49313   1.14878  -0.01668 
 1                    -0.40607  -1.83538  -0.01896 
 6                    -3.1239   -1.56067   0.00952 
 1                    -2.77344  -2.4611   -0.49966 
 1                    -3.37374  -1.8411    1.03845 
 1                    -4.04658  -1.23322  -0.47453 
 35                    2.10039  -0.26314   0.0003 
 
                          Input orientation:                          
 ---------------------------------------------------------------------
 Center     Atomic      Atomic             Coordinates (Angstroms)
 Number     Number       Type             X           Y           Z
 ---------------------------------------------------------------------
      1          6           0        0.238840    0.212521    0.001079
      2          6           0       -0.118039    1.556398    0.007754
      3          6           0       -1.473869    1.879266    0.002322
      4          6           0       -2.442495    0.878649   -0.008414
      5          6           0       -2.078206   -0.471768   -0.011490
      6          6           0       -0.716974   -0.797593   -0.009883
      7          1           0        0.639249    2.329137    0.012835
      8          1           0       -1.772089    2.921733    0.002725
      9          1           0       -3.493128    1.148780   -0.016683
     10          1           0       -0.406066   -1.835377   -0.018955
     11          6           0       -3.123900   -1.560665    0.009523
     12          1           0       -2.773436   -2.461095   -0.499660
     13          1           0       -3.373738   -1.841099    1.038455
     14          1           0       -4.046581   -1.233221   -0.474534
     15         35           0        2.100390   -0.263135    0.000299
 ---------------------------------------------------------------------
                    Distance matrix (angstroms):
                    1          2          3          4          5
     1  C    0.000000
     2  C    1.390472   0.000000
     3  C    2.389856   1.393753   0.000000
     4  C    2.762856   2.421301   1.392690   0.000000
     5  C    2.416012   2.820653   2.427504   1.398693   0.000000
     6  C    1.390694   2.429055   2.781836   2.405663   1.399685
     7  H    2.154189   1.081960   2.160500   3.406099   3.902592
     8  H    3.373969   2.144772   1.084284   2.150293   3.407310
     9  H    3.847659   3.399702   2.147412   1.084836   2.151327
    10  H    2.147136   3.404087   3.865130   3.393095   2.157669
    11  C    3.801615   4.330275   3.815204   2.532763   1.509839
    12  H    4.058666   4.842401   4.558464   3.391863   2.163117
    13  H    4.283016   4.817147   4.303974   3.059441   2.157743
    14  H    4.547660   4.842315   4.066179   2.692648   2.160722
    15  Br   1.921358   2.869178   4.167159   4.684181   4.183818
                    6          7          8          9         10
     6  C    0.000000
     7  H    3.408269   0.000000
     8  H    3.866111   2.483108   0.000000
     9  H    3.390493   4.297750   2.470974   0.000000
    10  H    1.083394   4.293818   4.949402   4.293617   0.000000
    11  C    2.525064   5.412196   4.681809   2.734613   2.731831
    12  H    2.690010   5.903846   5.498175   3.712468   2.495404
    13  H    3.040775   5.877655   5.130554   3.172845   3.150433
    14  H    3.389979   5.906346   4.760749   2.487944   3.717996
    15  Br   2.867628   2.975729   5.013929   5.768989   2.958824
                   11         12         13         14         15
    11  C    0.000000
    12  H    1.092184   0.000000
    13  H    1.095337   1.763677   0.000000
    14  H    1.092186   1.768956   1.763907   0.000000
    15  Br   5.383017   5.369839   5.790839   6.241137   0.000000
 Stoichiometry    C7H7Br
 Framework group  C1[X(C7H7Br)]
 Deg. of freedom    39
 Full point group                 C1      NOp   1
 Largest Abelian subgroup         C1      NOp   1
 Largest concise Abelian subgroup C1      NOp   1
                         Standard orientation:                         
 ---------------------------------------------------------------------
 Center     Atomic      Atomic             Coordinates (Angstroms)
 Number     Number       Type             X           Y           Z
 ---------------------------------------------------------------------
      1          6           0        0.238840    0.212521    0.001079
      2          6           0       -0.118039    1.556398    0.007754
      3          6           0       -1.473869    1.879266    0.002322
      4          6           0       -2.442495    0.878649   -0.008414
      5          6           0       -2.078206   -0.471768   -0.011490
      6          6           0       -0.716974   -0.797593   -0.009883
      7          1           0        0.639249    2.329137    0.012835
      8          1           0       -1.772089    2.921733    0.002725
      9          1           0       -3.493128    1.148780   -0.016683
     10          1           0       -0.406066   -1.835377   -0.018955
     11          6           0       -3.123900   -1.560665    0.009523
     12          1           0       -2.773436   -2.461095   -0.499660
     13          1           0       -3.373738   -1.841099    1.038455
     14          1           0       -4.046581   -1.233221   -0.474534
     15         35           0        2.100390   -0.263135    0.000299
 ---------------------------------------------------------------------
 Rotational constants (GHZ):      3.2152384      0.7555955      0.6141530
 Standard basis: 6-311+G(d,p) (5D, 7F)
 There are   254 symmetry adapted cartesian basis functions of A   symmetry.
 There are   244 symmetry adapted basis functions of A   symmetry.
   244 basis functions,   402 primitive gaussians,   254 cartesian basis functions
    42 alpha electrons       42 beta electrons
       nuclear repulsion energy       520.9571712129 Hartrees.
 NAtoms=   15 NActive=   15 NUniq=   15 SFac= 1.00D+00 NAtFMM=   60 NAOKFM=F Big=F
 Integral buffers will be    131072 words long.
 Raffenetti 2 integral format.
 Two-electron integral symmetry is turned on.
 One-electron integrals computed using PRISM.
 NBasis=   244 RedAO= T EigKep=  2.90D-06  NBF=   244
 NBsUse=   244 1.00D-06 EigRej= -1.00D+00 NBFU=   244
 ExpMin= 3.50D-02 ExpMax= 4.40D+05 ExpMxC= 1.51D+04 IAcc=3 IRadAn=         5 AccDes= 0.00D+00
 Harris functional with IExCor=  402 and IRadAn=       5 diagonalized for initial guess.
 HarFok:  IExCor=  402 AccDes= 0.00D+00 IRadAn=         5 IDoV= 1 UseB2=F ITyADJ=14
 ICtDFT=  3500011 ScaDFX=  1.000000  1.000000  1.000000  1.000000
 FoFCou: FMM=F IPFlag=           0 FMFlag=      100000 FMFlg1=           0
         NFxFlg=           0 DoJE=T BraDBF=F KetDBF=T FulRan=T
         wScrn=  0.000000 ICntrl=     500 IOpCl=  0 I1Cent=   200000004 NGrid=           0
         NMat0=    1 NMatS0=      1 NMatT0=    0 NMatD0=    1 NMtDS0=    0 NMtDT0=    0
 Petite list used in FoFCou.
 Requested convergence on RMS density matrix=1.00D-08 within 128 cycles.
 Requested convergence on MAX density matrix=1.00D-06.
 Requested convergence on             energy=1.00D-06.
 No special actions if energy rises.
 SCF Done:  E(RB3LYP) =  -2845.18185155     A.U. after   15 cycles
            NFock= 15  Conv=0.11D-08     -V/T= 2.0015

 **********************************************************************

            Population analysis using the SCF density.

 **********************************************************************

 Orbital symmetries:
       Occupied  (A) (A) (A) (A) (A) (A) (A) (A) (A) (A) (A) (A)
                 (A) (A) (A) (A) (A) (A) (A) (A) (A) (A) (A) (A)
                 (A) (A) (A) (A) (A) (A) (A) (A) (A) (A) (A) (A)
                 (A) (A) (A) (A) (A) (A)
       Virtual   (A) (A) (A) (A) (A) (A) (A) (A) (A) (A) (A) (A)
                 (A) (A) (A) (A) (A) (A) (A) (A) (A) (A) (A) (A)
                 (A) (A) (A) (A) (A) (A) (A) (A) (A) (A) (A) (A)
                 (A) (A) (A) (A) (A) (A) (A) (A) (A) (A) (A) (A)
                 (A) (A) (A) (A) (A) (A) (A) (A) (A) (A) (A) (A)
                 (A) (A) (A) (A) (A) (A) (A) (A) (A) (A) (A) (A)
                 (A) (A) (A) (A) (A) (A) (A) (A) (A) (A) (A) (A)
                 (A) (A) (A) (A) (A) (A) (A) (A) (A) (A) (A) (A)
                 (A) (A) (A) (A) (A) (A) (A) (A) (A) (A) (A) (A)
                 (A) (A) (A) (A) (A) (A) (A) (A) (A) (A) (A) (A)
                 (A) (A) (A) (A) (A) (A) (A) (A) (A) (A) (A) (A)
                 (A) (A) (A) (A) (A) (A) (A) (A) (A) (A) (A) (A)
                 (A) (A) (A) (A) (A) (A) (A) (A) (A) (A) (A) (A)
                 (A) (A) (A) (A) (A) (A) (A) (A) (A) (A) (A) (A)
                 (A) (A) (A) (A) (A) (A) (A) (A) (A) (A) (A) (A)
                 (A) (A) (A) (A) (A) (A) (A) (A) (A) (A) (A) (A)
                 (A) (A) (A) (A) (A) (A) (A) (A) (A) (A)
 The electronic state is 1-A.
 Alpha  occ. eigenvalues -- -482.82964 -62.48250 -56.30283 -56.29900 -56.29888
 Alpha  occ. eigenvalues --  -10.23689 -10.20027 -10.19054 -10.18983 -10.18942
 Alpha  occ. eigenvalues --  -10.18449 -10.17905  -8.69217  -6.52350  -6.51069
 Alpha  occ. eigenvalues --   -6.51046  -2.63445  -2.63076  -2.63061  -2.62044
 Alpha  occ. eigenvalues --   -2.62043  -0.88415  -0.81508  -0.78324  -0.73629
 Alpha  occ. eigenvalues --   -0.70231  -0.61859  -0.59313  -0.52421  -0.48576
 Alpha  occ. eigenvalues --   -0.46069  -0.43502  -0.43031  -0.42373  -0.40187
 Alpha  occ. eigenvalues --   -0.38511  -0.36375  -0.35628  -0.31603  -0.29314
 Alpha  occ. eigenvalues --   -0.26482  -0.24955
 Alpha virt. eigenvalues --   -0.02987  -0.02714  -0.01686  -0.00060   0.01412
 Alpha virt. eigenvalues --    0.01690   0.03756   0.03847   0.04474   0.04827
 Alpha virt. eigenvalues --    0.06107   0.06657   0.06850   0.07745   0.08295
 Alpha virt. eigenvalues --    0.09618   0.10496   0.11030   0.11505   0.11748
 Alpha virt. eigenvalues --    0.12656   0.13526   0.14328   0.15204   0.15653
 Alpha virt. eigenvalues --    0.16451   0.16656   0.17281   0.18009   0.18471
 Alpha virt. eigenvalues --    0.19170   0.20007   0.20128   0.20676   0.21957
 Alpha virt. eigenvalues --    0.22409   0.23368   0.23820   0.24718   0.24961
 Alpha virt. eigenvalues --    0.26030   0.26938   0.27200   0.29660   0.30563
 Alpha virt. eigenvalues --    0.31034   0.31809   0.33356   0.39919   0.42270
 Alpha virt. eigenvalues --    0.43709   0.44892   0.45588   0.46255   0.49891
 Alpha virt. eigenvalues --    0.50897   0.52641   0.53550   0.54192   0.54848
 Alpha virt. eigenvalues --    0.55729   0.57028   0.58338   0.59478   0.60298
 Alpha virt. eigenvalues --    0.61684   0.62490   0.62893   0.63552   0.64290
 Alpha virt. eigenvalues --    0.66870   0.66975   0.68150   0.69127   0.71011
 Alpha virt. eigenvalues --    0.72841   0.73795   0.74295   0.75009   0.77050
 Alpha virt. eigenvalues --    0.81802   0.82127   0.84671   0.85411   0.86599
 Alpha virt. eigenvalues --    0.88077   0.91384   0.91702   0.94492   0.96452
 Alpha virt. eigenvalues --    0.99654   1.00154   1.01263   1.04389   1.08981
 Alpha virt. eigenvalues --    1.10304   1.10514   1.11853   1.24726   1.29949
 Alpha virt. eigenvalues --    1.34732   1.35799   1.40183   1.45720   1.47841
 Alpha virt. eigenvalues --    1.50334   1.51396   1.54074   1.55397   1.55804
 Alpha virt. eigenvalues --    1.58657   1.59810   1.61183   1.62442   1.66613
 Alpha virt. eigenvalues --    1.68636   1.70445   1.71489   1.74689   1.80477
 Alpha virt. eigenvalues --    1.82964   1.88174   1.90065   1.91159   1.91793
 Alpha virt. eigenvalues --    1.93458   1.96655   1.97713   1.99962   2.00701
 Alpha virt. eigenvalues --    2.02778   2.04440   2.04878   2.11309   2.16224
 Alpha virt. eigenvalues --    2.19458   2.21648   2.27631   2.31161   2.33354
 Alpha virt. eigenvalues --    2.36790   2.38289   2.39725   2.43083   2.50082
 Alpha virt. eigenvalues --    2.53217   2.53892   2.58567   2.58944   2.64735
 Alpha virt. eigenvalues --    2.65323   2.67150   2.69716   2.73238   2.74354
 Alpha virt. eigenvalues --    2.75584   2.77441   2.78605   2.81546   2.83465
 Alpha virt. eigenvalues --    2.87348   2.88641   2.91105   2.91711   3.07838
 Alpha virt. eigenvalues --    3.09791   3.14641   3.20226   3.34102   3.36181
 Alpha virt. eigenvalues --    3.49245   3.58972   3.64388   3.74066   3.79672
 Alpha virt. eigenvalues --    3.81463   4.00275   4.09734   4.12911   4.14257
 Alpha virt. eigenvalues --    4.19592   4.21873   4.31677   4.37781   4.57523
 Alpha virt. eigenvalues --    4.83343   6.74653   7.55770   7.68285   7.74327
 Alpha virt. eigenvalues --   23.52800  23.89443  23.92357  23.96917  24.06346
 Alpha virt. eigenvalues --   24.07615  24.17332  48.00548 289.75528 289.88266
 Alpha virt. eigenvalues --  289.966611020.81236
          Condensed to atoms (all electrons):
               1          2          3          4          5          6
     1  C    6.257008   0.092267   0.283216  -0.638654   0.406573  -0.387981
     2  C    0.092267   6.190609   0.182587  -0.002254  -0.861038   0.051223
     3  C    0.283216   0.182587   5.775240   0.137838   0.419482  -0.935407
     4  C   -0.638654  -0.002254   0.137838   7.138968  -0.406526   0.026648
     5  C    0.406573  -0.861038   0.419482  -0.406526   7.512747  -0.965868
     6  C   -0.387981   0.051223  -0.935407   0.026648  -0.965868   8.239405
     7  H   -0.024633   0.393079   0.001297  -0.022670   0.028571  -0.021074
     8  H   -0.008298  -0.004999   0.378552  -0.028814   0.017922  -0.014586
     9  H    0.003806  -0.007948   0.027426   0.297682  -0.008472  -0.012370
    10  H   -0.004248   0.013296  -0.004973  -0.000343   0.000313   0.300035
    11  C   -0.317678   0.155730  -0.226383   0.025240  -0.908973   0.251196
    12  H    0.024609   0.002822  -0.006804  -0.089199  -0.141284   0.146525
    13  H    0.014374  -0.009445   0.007824  -0.032286   0.105960  -0.069207
    14  H   -0.004255   0.003489   0.025492   0.124393  -0.129972  -0.080652
    15  Br  -0.261135   0.118178   0.007412   0.079537  -0.039210   0.239468
               7          8          9         10         11         12
     1  C   -0.024633  -0.008298   0.003806  -0.004248  -0.317678   0.024609
     2  C    0.393079  -0.004999  -0.007948   0.013296   0.155730   0.002822
     3  C    0.001297   0.378552   0.027426  -0.004973  -0.226383  -0.006804
     4  C   -0.022670  -0.028814   0.297682  -0.000343   0.025240  -0.089199
     5  C    0.028571   0.017922  -0.008472   0.000313  -0.908973  -0.141284
     6  C   -0.021074  -0.014586  -0.012370   0.300035   0.251196   0.146525
     7  H    0.517464  -0.007806  -0.000216  -0.000165   0.001540  -0.000002
     8  H   -0.007806   0.535691  -0.007863   0.000061   0.008242   0.000014
     9  H   -0.000216  -0.007863   0.543438  -0.000233   0.042535   0.000214
    10  H   -0.000165   0.000061  -0.000233   0.523201   0.045471   0.000991
    11  C    0.001540   0.008242   0.042535   0.045471   6.339986   0.428818
    12  H   -0.000002   0.000014   0.000214   0.000991   0.428818   0.544689
    13  H    0.000000   0.000008   0.000345   0.000321   0.338208  -0.027340
    14  H   -0.000001  -0.000007   0.000960   0.000248   0.426638  -0.028107
    15  Br  -0.009237  -0.000516  -0.000530  -0.010547  -0.007909   0.000137
              13         14         15
     1  C    0.014374  -0.004255  -0.261135
     2  C   -0.009445   0.003489   0.118178
     3  C    0.007824   0.025492   0.007412
     4  C   -0.032286   0.124393   0.079537
     5  C    0.105960  -0.129972  -0.039210
     6  C   -0.069207  -0.080652   0.239468
     7  H    0.000000  -0.000001  -0.009237
     8  H    0.000008  -0.000007  -0.000516
     9  H    0.000345   0.000960  -0.000530
    10  H    0.000321   0.000248  -0.010547
    11  C    0.338208   0.426638  -0.007909
    12  H   -0.027340  -0.028107   0.000137
    13  H    0.525860  -0.026701  -0.000013
    14  H   -0.026701   0.545595  -0.000012
    15  Br  -0.000013  -0.000012  35.042161
 Mulliken charges:
               1
     1  C    0.565028
     2  C   -0.317593
     3  C   -0.072800
     4  C   -0.609560
     5  C    0.969774
     6  C   -0.767354
     7  H    0.143853
     8  H    0.132399
     9  H    0.121226
    10  H    0.136573
    11  C   -0.602662
    12  H    0.143917
    13  H    0.172091
    14  H    0.142891
    15  Br  -0.157783
 Sum of Mulliken charges =   0.00000
 Mulliken charges with hydrogens summed into heavy atoms:
               1
     1  C    0.565028
     2  C   -0.173741
     3  C    0.059598
     4  C   -0.488334
     5  C    0.969774
     6  C   -0.630781
    11  C   -0.143762
    15  Br  -0.157783
 Electronic spatial extent (au):  <R**2>=           1689.5109
 Charge=              0.0000 electrons
 Dipole moment (field-independent basis, Debye):
    X=             -2.1807    Y=              0.1214    Z=              0.0371  Tot=              2.1844
 Quadrupole moment (field-independent basis, Debye-Ang):
   XX=            -56.3595   YY=            -55.1233   ZZ=            -64.0432
   XY=              0.8665   XZ=             -0.0857   YZ=             -0.0159
 Traceless Quadrupole moment (field-independent basis, Debye-Ang):
   XX=              2.1491   YY=              3.3854   ZZ=             -5.5345
   XY=              0.8665   XZ=             -0.0857   YZ=             -0.0159
 Octapole moment (field-independent basis, Debye-Ang**2):
  XXX=             51.6528  YYY=             -1.9803  ZZZ=              0.7587  XYY=             16.8386
  XXY=             -4.1317  XXZ=             -0.1039  XZZ=             24.8969  YZZ=             -6.2584
  YYZ=             -0.2492  XYZ=              0.4227
 Hexadecapole moment (field-independent basis, Debye-Ang**3):
 XXXX=          -1400.1684 YYYY=           -480.0199 ZZZZ=            -84.0288 XXXY=            -29.0880
 XXXZ=              2.9351 YYYX=            -21.5580 YYYZ=              1.9375 ZZZX=             -2.4750
 ZZZY=             -1.3458 XXYY=           -323.1020 XXZZ=           -273.4955 YYZZ=           -107.2828
 XXYZ=             -1.7783 YYXZ=             -0.1412 ZZXY=              0.5615
 N-N= 5.209571712129D+02 E-N=-7.822980061454D+03  KE= 2.840825362419D+03
 There are a total of      126592 grid points.
 ElSum from          density=       84.0003260467
 ElSum from atomic densities=       84.0011726462

 Hirshfeld populations at iteration   1 (CX, CA, CB, DipXYZ):
               1          2          3          4          5          6
     1  C    0.000001   2.987566   2.987566   0.022347  -0.005641   0.000104
     2  C    0.000000   3.017902   3.017902   0.058194   0.044609   0.000134
     3  C    0.000000   3.019858   3.019858  -0.015134   0.063546   0.000106
     4  C    0.000000   3.025513   3.025513  -0.058095   0.010495   0.001836
     5  C    0.000000   2.995205   2.995205  -0.050988  -0.056503   0.002420
     6  C    0.000000   3.018114   3.018114   0.024872  -0.061431   0.001819
     7  H    0.000010   0.470002   0.470002   0.111461   0.119458   0.000703
     8  H    0.000002   0.474041   0.474041  -0.044396   0.156651   0.000026
     9  H    0.000001   0.476401   0.476401  -0.152426   0.044081  -0.001044
    10  H    0.000009   0.471130   0.471130   0.046453  -0.152120  -0.001130
    11  C    0.000000   3.046433   3.046433   0.009406   0.008462  -0.000243
    12  H    0.000001   0.478035   0.478035   0.045118  -0.126052  -0.070553
    13  H    0.000001   0.477300   0.477300  -0.037127  -0.041776   0.141980
    14  H    0.000001   0.478305   0.478305  -0.128430   0.041133  -0.066969
    15  Br   0.000073  17.564359  17.564359   0.206306  -0.050305  -0.000166
       Tot   0.000099  42.000163  42.000163   0.037562  -0.005393   0.009024

 Dip from Atomic Chgs             -0.894662   0.052399   0.005757
         Total Dipole             -0.857100   0.047006   0.014782

 Hirshfeld charges, spin densities, dipoles, and CM5 charges using IRadAn=      4:
              Q-H        S-H        Dx         Dy         Dz        Q-CM5   
     1  C    0.024868   0.000000   0.022347  -0.005641   0.000104   0.030917
     2  C   -0.035803   0.000000   0.058194   0.044609   0.000134  -0.087111
     3  C   -0.039716   0.000000  -0.015134   0.063546   0.000106  -0.095100
     4  C   -0.051026   0.000000  -0.058095   0.010495   0.001836  -0.104618
     5  C    0.009589   0.000000  -0.050988  -0.056503   0.002420  -0.007567
     6  C   -0.036228   0.000000   0.024872  -0.061431   0.001819  -0.085338
     7  H    0.059997   0.000000   0.111461   0.119458   0.000703   0.114969
     8  H    0.051918   0.000000  -0.044396   0.156651   0.000026   0.107730
     9  H    0.047198   0.000000  -0.152426   0.044081  -0.001044   0.103726
    10  H    0.057739   0.000000   0.046453  -0.152120  -0.001130   0.113416
    11  C   -0.092866   0.000000   0.009406   0.008462  -0.000243  -0.236698
    12  H    0.043931   0.000000   0.045118  -0.126052  -0.070553   0.095924
    13  H    0.045400   0.000000  -0.037127  -0.041776   0.141980   0.096741
    14  H    0.043390   0.000000  -0.128430   0.041133  -0.066969   0.095400
    15  Br  -0.128719   0.000000   0.206306  -0.050305  -0.000166  -0.142717
       Tot  -0.000326   0.000000   0.037562  -0.005393   0.009024  -0.000326
 Hirshfeld charges with hydrogens summed into heavy atoms:
              Q-H       Q-CM5   
     1  C    0.024868   0.030917
     2  C    0.024194   0.027858
     3  C    0.012202   0.012630
     4  C   -0.003828  -0.000892
     5  C    0.009589  -0.007567
     6  C    0.021511   0.028077
    11  C    0.039856   0.051367
    15  Br  -0.128719  -0.142717
 
 EQQ= 0.000000000000E+00 EQD= 0.000000000000E+00 EDD= 0.583559668863E-02
 EQQ+QD+DD= 0.583559668863E-02
 
          MBS Condensed to atoms (all electrons):
               1          2          3          4          5          6
     1  C    4.778362   0.499825  -0.030529  -0.012416  -0.027259   0.501302
     2  C    0.499825   4.820556   0.502317  -0.030787  -0.010607  -0.031119
     3  C   -0.030529   0.502317   4.817149   0.507619  -0.029605  -0.011428
     4  C   -0.012416  -0.030787   0.507619   4.841390   0.503099  -0.032527
     5  C   -0.027259  -0.010607  -0.029605   0.503099   4.775777   0.499637
     6  C    0.501302  -0.031119  -0.011428  -0.032527   0.499637   4.835908
     7  H   -0.025467   0.389658  -0.023190   0.001430   0.000042   0.001385
     8  H    0.001501  -0.025812   0.389915  -0.025372   0.001485   0.000037
     9  H    0.000077   0.001512  -0.025819   0.389162  -0.026765   0.001550
    10  H   -0.025891   0.001402   0.000053   0.001482  -0.024521   0.387558
    11  C    0.000851   0.000019   0.000889  -0.028061   0.386841  -0.028472
    12  H    0.000036   0.000001  -0.000028   0.001259  -0.021402  -0.003881
    13  H   -0.000018   0.000004  -0.000020  -0.000542  -0.021184  -0.000657
    14  H   -0.000026   0.000001   0.000035  -0.003911  -0.021501   0.001280
    15  Br   0.271554  -0.021053   0.000401  -0.000059   0.000395  -0.021059
               7          8          9         10         11         12
     1  C   -0.025467   0.001501   0.000077  -0.025891   0.000851   0.000036
     2  C    0.389658  -0.025812   0.001512   0.001402   0.000019   0.000001
     3  C   -0.023190   0.389915  -0.025819   0.000053   0.000889  -0.000028
     4  C    0.001430  -0.025372   0.389162   0.001482  -0.028061   0.001259
     5  C    0.000042   0.001485  -0.026765  -0.024521   0.386841  -0.021402
     6  C    0.001385   0.000037   0.001550   0.387558  -0.028472  -0.003881
     7  H    0.537224  -0.003856  -0.000037  -0.000042   0.000001   0.000000
     8  H   -0.003856   0.553494  -0.003885   0.000002  -0.000019   0.000001
     9  H   -0.000037  -0.003885   0.561970  -0.000041  -0.003590   0.000034
    10  H   -0.000042   0.000002  -0.000041   0.545125  -0.003730   0.001028
    11  C    0.000001  -0.000019  -0.003590  -0.003730   4.809611   0.377304
    12  H    0.000000   0.000001   0.000034   0.001028   0.377304   0.590200
    13  H    0.000000   0.000001   0.000141   0.000157   0.371943  -0.021849
    14  H    0.000000  -0.000001   0.001125   0.000040   0.377296  -0.021776
    15  Br  -0.001561   0.000000   0.000001  -0.001670   0.000004   0.000000
              13         14         15
     1  C   -0.000018  -0.000026   0.271554
     2  C    0.000004   0.000001  -0.021053
     3  C   -0.000020   0.000035   0.000401
     4  C   -0.000542  -0.003911  -0.000059
     5  C   -0.021184  -0.021501   0.000395
     6  C   -0.000657   0.001280  -0.021059
     7  H    0.000000   0.000000  -0.001561
     8  H    0.000001  -0.000001   0.000000
     9  H    0.000141   0.001125   0.000001
    10  H    0.000157   0.000040  -0.001670
    11  C    0.371943   0.377296   0.000004
    12  H   -0.021849  -0.021776   0.000000
    13  H    0.587606  -0.021839   0.000000
    14  H   -0.021839   0.590866   0.000000
    15  Br   0.000000   0.000000  34.955157
 MBS Mulliken charges:
               1
     1  C    0.068100
     2  C   -0.095917
     3  C   -0.097757
     4  C   -0.111767
     5  C    0.015568
     6  C   -0.099514
     7  H    0.124413
     8  H    0.112510
     9  H    0.104566
    10  H    0.119049
    11  C   -0.260885
    12  H    0.099075
    13  H    0.106259
    14  H    0.098410
    15  Br  -0.182110
 Sum of MBS Mulliken charges =   0.00000
 MBS Mulliken charges with hydrogens summed into heavy atoms:
               1
     1  C    0.068100
     2  C    0.028496
     3  C    0.014753
     4  C   -0.007201
     5  C    0.015568
     6  C    0.019535
    11  C    0.042859
    15  Br  -0.182110
 ******************************Gaussian NBO Version 3.1******************************
             N A T U R A L   A T O M I C   O R B I T A L   A N D
          N A T U R A L   B O N D   O R B I T A L   A N A L Y S I S
 ******************************Gaussian NBO Version 3.1******************************
       /RESON  / : Allow strongly delocalized NBO set

 Analyzing the SCF density

 Job title: Table13_2                                                       

 Storage needed:    179908 in NPA ( 209713925 available)


 NATURAL POPULATIONS:  Natural atomic orbital occupancies 
                                                          
   NAO  Atom  No  lang   Type(AO)    Occupancy      Energy
 ----------------------------------------------------------
     1    C    1  S      Cor( 1S)     1.99862     -10.10431
     2    C    1  S      Val( 2S)     0.95452      -0.22996
     3    C    1  S      Ryd( 4S)     0.00133       0.87605
     4    C    1  S      Ryd( 3S)     0.00031       0.47145
     5    C    1  S      Ryd( 5S)     0.00001      23.39975
     6    C    1  px     Val( 2p)     0.97100      -0.16451
     7    C    1  px     Ryd( 3p)     0.00716       0.92341
     8    C    1  px     Ryd( 4p)     0.00024       1.01798
     9    C    1  px     Ryd( 5p)     0.00036       2.87049
    10    C    1  py     Val( 2p)     1.07556      -0.08240
    11    C    1  py     Ryd( 4p)     0.00692       0.73980
    12    C    1  py     Ryd( 3p)     0.00027       0.73897
    13    C    1  py     Ryd( 5p)     0.00009       3.05841
    14    C    1  pz     Val( 2p)     1.06723      -0.14723
    15    C    1  pz     Ryd( 3p)     0.00107       0.58922
    16    C    1  pz     Ryd( 4p)     0.00040       0.62001
    17    C    1  pz     Ryd( 5p)     0.00002       2.37297
    18    C    1  dxy    Ryd( 3d)     0.00098       2.54035
    19    C    1  dxz    Ryd( 3d)     0.00091       1.59469
    20    C    1  dyz    Ryd( 3d)     0.00074       1.72866
    21    C    1  dx2y2  Ryd( 3d)     0.00151       2.36790
    22    C    1  dz2    Ryd( 3d)     0.00057       2.05033

    23    C    2  S      Cor( 1S)     1.99894     -10.03764
    24    C    2  S      Val( 2S)     0.94604      -0.16616
    25    C    2  S      Ryd( 3S)     0.00178       0.78281
    26    C    2  S      Ryd( 4S)     0.00024       0.84993
    27    C    2  S      Ryd( 5S)     0.00001      23.04081
    28    C    2  px     Val( 2p)     1.12853      -0.06893
    29    C    2  px     Ryd( 4p)     0.00691       0.89026
    30    C    2  px     Ryd( 3p)     0.00030       0.37959
    31    C    2  px     Ryd( 5p)     0.00012       3.16182
    32    C    2  py     Val( 2p)     1.13609      -0.08147
    33    C    2  py     Ryd( 4p)     0.00513       0.84952
    34    C    2  py     Ryd( 3p)     0.00028       0.33721
    35    C    2  py     Ryd( 5p)     0.00010       3.16208
    36    C    2  pz     Val( 2p)     1.00943      -0.11969
    37    C    2  pz     Ryd( 4p)     0.00139       0.50151
    38    C    2  pz     Ryd( 3p)     0.00031       0.27640
    39    C    2  pz     Ryd( 5p)     0.00002       2.71897
    40    C    2  dxy    Ryd( 3d)     0.00077       2.46374
    41    C    2  dxz    Ryd( 3d)     0.00046       1.63256
    42    C    2  dyz    Ryd( 3d)     0.00050       1.63632
    43    C    2  dx2y2  Ryd( 3d)     0.00079       2.60002
    44    C    2  dz2    Ryd( 3d)     0.00040       2.03293

    45    C    3  S      Cor( 1S)     1.99916     -10.04368
    46    C    3  S      Val( 2S)     0.94895      -0.17116
    47    C    3  S      Ryd( 3S)     0.00155       0.72937
    48    C    3  S      Ryd( 4S)     0.00018       1.01458
    49    C    3  S      Ryd( 5S)     0.00000      22.72627
    50    C    3  px     Val( 2p)     1.06130      -0.05343
    51    C    3  px     Ryd( 4p)     0.00467       0.80553
    52    C    3  px     Ryd( 3p)     0.00043       0.40672
    53    C    3  px     Ryd( 5p)     0.00016       3.02654
    54    C    3  py     Val( 2p)     1.16525      -0.06390
    55    C    3  py     Ryd( 4p)     0.00687       1.02841
    56    C    3  py     Ryd( 3p)     0.00030       0.27867
    57    C    3  py     Ryd( 5p)     0.00007       3.16930
    58    C    3  pz     Val( 2p)     0.98682      -0.11846
    59    C    3  pz     Ryd( 4p)     0.00080       0.52133
    60    C    3  pz     Ryd( 3p)     0.00028       0.34439
    61    C    3  pz     Ryd( 5p)     0.00001       2.61983
    62    C    3  dxy    Ryd( 3d)     0.00066       2.54949
    63    C    3  dxz    Ryd( 3d)     0.00053       1.66403
    64    C    3  dyz    Ryd( 3d)     0.00039       1.60342
    65    C    3  dx2y2  Ryd( 3d)     0.00075       2.51267
    66    C    3  dz2    Ryd( 3d)     0.00040       2.03149

    67    C    4  S      Cor( 1S)     1.99905     -10.03485
    68    C    4  S      Val( 2S)     0.94112      -0.16025
    69    C    4  S      Ryd( 4S)     0.00124       0.83170
    70    C    4  S      Ryd( 3S)     0.00019       0.70093
    71    C    4  S      Ryd( 5S)     0.00001      23.07309
    72    C    4  px     Val( 2p)     1.16800      -0.06505
    73    C    4  px     Ryd( 4p)     0.00606       1.06654
    74    C    4  px     Ryd( 3p)     0.00030       0.32382
    75    C    4  px     Ryd( 5p)     0.00005       3.18691
    76    C    4  py     Val( 2p)     1.07155      -0.05508
    77    C    4  py     Ryd( 4p)     0.00407       0.77193
    78    C    4  py     Ryd( 3p)     0.00047       0.39173
    79    C    4  py     Ryd( 5p)     0.00016       3.14491
    80    C    4  pz     Val( 2p)     1.01237      -0.11719
    81    C    4  pz     Ryd( 4p)     0.00110       0.50704
    82    C    4  pz     Ryd( 3p)     0.00029       0.28929
    83    C    4  pz     Ryd( 5p)     0.00002       2.70761
    84    C    4  dxy    Ryd( 3d)     0.00074       2.57639
    85    C    4  dxz    Ryd( 3d)     0.00039       1.61173
    86    C    4  dyz    Ryd( 3d)     0.00050       1.67361
    87    C    4  dx2y2  Ryd( 3d)     0.00077       2.50758
    88    C    4  dz2    Ryd( 3d)     0.00039       2.05131

    89    C    5  S      Cor( 1S)     1.99905     -10.05429
    90    C    5  S      Val( 2S)     0.89084      -0.15101
    91    C    5  S      Ryd( 3S)     0.00067       0.65831
    92    C    5  S      Ryd( 4S)     0.00023       1.16790
    93    C    5  S      Ryd( 5S)     0.00001      22.73881
    94    C    5  px     Val( 2p)     1.06211      -0.06038
    95    C    5  px     Ryd( 4p)     0.00455       1.02387
    96    C    5  px     Ryd( 3p)     0.00052       0.99010
    97    C    5  px     Ryd( 5p)     0.00009       2.76965
    98    C    5  py     Val( 2p)     1.07349      -0.06511
    99    C    5  py     Ryd( 4p)     0.00470       1.04056
   100    C    5  py     Ryd( 3p)     0.00036       1.00459
   101    C    5  py     Ryd( 5p)     0.00009       2.77805
   102    C    5  pz     Val( 2p)     0.97312      -0.11067
   103    C    5  pz     Ryd( 3p)     0.00120       0.56691
   104    C    5  pz     Ryd( 4p)     0.00037       0.93561
   105    C    5  pz     Ryd( 5p)     0.00003       2.14445
   106    C    5  dxy    Ryd( 3d)     0.00077       2.60364
   107    C    5  dxz    Ryd( 3d)     0.00054       1.80748
   108    C    5  dyz    Ryd( 3d)     0.00062       1.68938
   109    C    5  dx2y2  Ryd( 3d)     0.00077       2.75111
   110    C    5  dz2    Ryd( 3d)     0.00026       2.13959

   111    C    6  S      Cor( 1S)     1.99884     -10.03437
   112    C    6  S      Val( 2S)     0.93639      -0.15698
   113    C    6  S      Ryd( 4S)     0.00178       0.86180
   114    C    6  S      Ryd( 3S)     0.00019       0.80431
   115    C    6  S      Ryd( 5S)     0.00001      23.12050
   116    C    6  px     Val( 2p)     1.08406      -0.06967
   117    C    6  px     Ryd( 4p)     0.00533       0.77446
   118    C    6  px     Ryd( 3p)     0.00026       0.47677
   119    C    6  px     Ryd( 5p)     0.00013       3.31290
   120    C    6  py     Val( 2p)     1.18322      -0.08490
   121    C    6  py     Ryd( 4p)     0.00591       0.99452
   122    C    6  py     Ryd( 3p)     0.00027       0.48114
   123    C    6  py     Ryd( 5p)     0.00006       3.17894
   124    C    6  pz     Val( 2p)     1.01022      -0.12003
   125    C    6  pz     Ryd( 4p)     0.00113       0.50384
   126    C    6  pz     Ryd( 3p)     0.00041       0.28969
   127    C    6  pz     Ryd( 5p)     0.00001       2.72194
   128    C    6  dxy    Ryd( 3d)     0.00150       1.88735
   129    C    6  dxz    Ryd( 3d)     0.00028       1.39374
   130    C    6  dyz    Ryd( 3d)     0.00050       1.33785
   131    C    6  dx2y2  Ryd( 3d)     0.00119       1.82928
   132    C    6  dz2    Ryd( 3d)     0.00120       1.74384

   133    H    7  S      Val( 1S)     0.77510       0.04231
   134    H    7  S      Ryd( 2S)     0.00066       0.85214
   135    H    7  S      Ryd( 3S)     0.00019       1.87133
   136    H    7  px     Ryd( 2p)     0.00029       2.33180
   137    H    7  py     Ryd( 2p)     0.00028       2.33158
   138    H    7  pz     Ryd( 2p)     0.00019       1.59376

   139    H    8  S      Val( 1S)     0.78813       0.03885
   140    H    8  S      Ryd( 2S)     0.00069       0.59011
   141    H    8  S      Ryd( 3S)     0.00017       2.14153
   142    H    8  px     Ryd( 2p)     0.00013       2.01961
   143    H    8  py     Ryd( 2p)     0.00040       2.63167
   144    H    8  pz     Ryd( 2p)     0.00020       1.58645

   145    H    9  S      Val( 1S)     0.79187       0.03854
   146    H    9  S      Ryd( 2S)     0.00070       0.88875
   147    H    9  S      Ryd( 3S)     0.00016       1.82429
   148    H    9  px     Ryd( 2p)     0.00039       2.66958
   149    H    9  py     Ryd( 2p)     0.00015       2.03617
   150    H    9  pz     Ryd( 2p)     0.00019       1.59652

   151    H   10  S      Val( 1S)     0.77765       0.03879
   152    H   10  S      Ryd( 2S)     0.00086       1.03559
   153    H   10  S      Ryd( 3S)     0.00015       1.71009
   154    H   10  px     Ryd( 2p)     0.00023       2.13525
   155    H   10  py     Ryd( 2p)     0.00018       2.85226
   156    H   10  pz     Ryd( 2p)     0.00030       1.72784

   157    C   11  S      Cor( 1S)     1.99930     -10.03500
   158    C   11  S      Val( 2S)     1.07854      -0.25340
   159    C   11  S      Ryd( 4S)     0.00056       0.81658
   160    C   11  S      Ryd( 3S)     0.00012       0.63621
   161    C   11  S      Ryd( 5S)     0.00000      23.31047
   162    C   11  px     Val( 2p)     1.14791      -0.10082
   163    C   11  px     Ryd( 4p)     0.00258       0.49496
   164    C   11  px     Ryd( 3p)     0.00023       0.27413
   165    C   11  px     Ryd( 5p)     0.00005       3.06535
   166    C   11  py     Val( 2p)     1.14306      -0.10029
   167    C   11  py     Ryd( 4p)     0.00240       0.48941
   168    C   11  py     Ryd( 3p)     0.00021       0.27833
   169    C   11  py     Ryd( 5p)     0.00004       3.05863
   170    C   11  pz     Val( 2p)     1.21114      -0.10685
   171    C   11  pz     Ryd( 4p)     0.00058       0.49635
   172    C   11  pz     Ryd( 3p)     0.00005       0.26129
   173    C   11  pz     Ryd( 5p)     0.00005       3.03815
   174    C   11  dxy    Ryd( 3d)     0.00075       2.22746
   175    C   11  dxz    Ryd( 3d)     0.00057       1.97160
   176    C   11  dyz    Ryd( 3d)     0.00061       1.98730
   177    C   11  dx2y2  Ryd( 3d)     0.00049       2.08985
   178    C   11  dz2    Ryd( 3d)     0.00071       2.10051

   179    H   12  S      Val( 1S)     0.78822       0.02441
   180    H   12  S      Ryd( 2S)     0.00071       0.64565
   181    H   12  S      Ryd( 3S)     0.00009       2.10263
   182    H   12  px     Ryd( 2p)     0.00014       1.80475
   183    H   12  py     Ryd( 2p)     0.00024       2.38535
   184    H   12  pz     Ryd( 2p)     0.00015       1.95852

   185    H   13  S      Val( 1S)     0.78205       0.02321
   186    H   13  S      Ryd( 2S)     0.00067       0.61774
   187    H   13  S      Ryd( 3S)     0.00009       2.16116
   188    H   13  px     Ryd( 2p)     0.00016       1.81609
   189    H   13  py     Ryd( 2p)     0.00016       1.82174
   190    H   13  pz     Ryd( 2p)     0.00027       2.55382

   191    H   14  S      Val( 1S)     0.78876       0.02393
   192    H   14  S      Ryd( 2S)     0.00070       0.68932
   193    H   14  S      Ryd( 3S)     0.00009       2.05410
   194    H   14  px     Ryd( 2p)     0.00025       2.41500
   195    H   14  py     Ryd( 2p)     0.00013       1.79418
   196    H   14  pz     Ryd( 2p)     0.00014       1.93876

   197   Br   15  S      Cor( 1S)     2.00000    -481.80582
   198   Br   15  S      Cor( 2S)     2.00000     -60.24172
   199   Br   15  S      Cor( 3S)     1.99977     -11.55917
   200   Br   15  S      Val( 4S)     1.86553      -1.04836
   201   Br   15  S      Ryd( 6S)     0.00296       0.77904
   202   Br   15  S      Ryd( 5S)     0.00022       0.27055
   203   Br   15  S      Ryd( 7S)     0.00000      14.60248
   204   Br   15  S      Ryd( 8S)     0.00000      86.23657
   205   Br   15  S      Ryd( 9S)     0.00000     974.03244
   206   Br   15  px     Cor( 2p)     2.00000     -56.05968
   207   Br   15  px     Cor( 3p)     1.99986      -6.75481
   208   Br   15  px     Val( 4p)     1.19594      -0.24702
   209   Br   15  px     Ryd( 5p)     0.00485       0.34934
   210   Br   15  px     Ryd( 6p)     0.00007       0.35377
   211   Br   15  px     Ryd( 7p)     0.00001       3.64226
   212   Br   15  px     Ryd( 8p)     0.00000      10.55655
   213   Br   15  px     Ryd( 9p)     0.00000     285.22367
   214   Br   15  py     Cor( 2p)     2.00000     -56.05636
   215   Br   15  py     Cor( 3p)     1.99998      -6.74626
   216   Br   15  py     Val( 4p)     1.92548      -0.29392
   217   Br   15  py     Ryd( 5p)     0.00183       0.39251
   218   Br   15  py     Ryd( 6p)     0.00007       0.41152
   219   Br   15  py     Ryd( 7p)     0.00001       3.31148
   220   Br   15  py     Ryd( 8p)     0.00000      10.65778
   221   Br   15  py     Ryd( 9p)     0.00000     285.22332
   222   Br   15  pz     Cor( 2p)     2.00000     -56.05624
   223   Br   15  pz     Cor( 3p)     1.99999      -6.74594
   224   Br   15  pz     Val( 4p)     1.93870      -0.29572
   225   Br   15  pz     Ryd( 5p)     0.00154       0.38429
   226   Br   15  pz     Ryd( 6p)     0.00005       0.38976
   227   Br   15  pz     Ryd( 7p)     0.00001       3.09681
   228   Br   15  pz     Ryd( 8p)     0.00000      10.69321
   229   Br   15  pz     Ryd( 9p)     0.00000     285.22202
   230   Br   15  dxy    Cor( 3d)     1.99993      -2.63045
   231   Br   15  dxy    Ryd( 4d)     0.00123       1.03392
   232   Br   15  dxy    Ryd( 5d)     0.00001       4.36646
   233   Br   15  dxz    Cor( 3d)     1.99995      -2.63001
   234   Br   15  dxz    Ryd( 4d)     0.00212       0.75476
   235   Br   15  dxz    Ryd( 5d)     0.00001       4.17107
   236   Br   15  dyz    Cor( 3d)     1.99999      -2.62105
   237   Br   15  dyz    Ryd( 4d)     0.00020       0.68516
   238   Br   15  dyz    Ryd( 5d)     0.00000       4.09424
   239   Br   15  dx2y2  Cor( 3d)     1.99985      -2.63042
   240   Br   15  dx2y2  Ryd( 4d)     0.00256       1.07007
   241   Br   15  dx2y2  Ryd( 5d)     0.00001       4.40438
   242   Br   15  dz2    Cor( 3d)     1.99994      -2.62390
   243   Br   15  dz2    Ryd( 4d)     0.00105       0.81452
   244   Br   15  dz2    Ryd( 5d)     0.00000       4.21384

 WARNING:  1 low occupancy (<1.9990e) core orbital  found on  C    1
           1 low occupancy (<1.9990e) core orbital  found on  C    2
           1 low occupancy (<1.9990e) core orbital  found on  C    6

 WARNING:  Population inversion found on atom  C    1
           Population inversion found on atom  C    2
           Population inversion found on atom  C    3
           Population inversion found on atom  C    4
           Population inversion found on atom  C    5
           Population inversion found on atom  C    6
           Population inversion found on atom  C   11
           Population inversion found on atom Br   15


 Summary of Natural Population Analysis:                  
                                                          
                                       Natural Population 
                Natural  -----------------------------------------------
    Atom  No    Charge         Core      Valence    Rydberg      Total
 -----------------------------------------------------------------------
      C    1   -0.08984      1.99862     4.06830    0.02291     6.08984
      C    2   -0.23854      1.99894     4.22009    0.01951     6.23854
      C    3   -0.17951      1.99916     4.16231    0.01805     6.17951
      C    4   -0.20884      1.99905     4.19305    0.01675     6.20884
      C    5   -0.01438      1.99905     3.99956    0.01577     6.01438
      C    6   -0.23288      1.99884     4.21389    0.02015     6.23288
      H    7    0.22329      0.00000     0.77510    0.00161     0.77671
      H    8    0.21027      0.00000     0.78813    0.00160     0.78973
      H    9    0.20653      0.00000     0.79187    0.00160     0.79347
      H   10    0.22063      0.00000     0.77765    0.00172     0.77937
      C   11   -0.58998      1.99930     4.58066    0.01002     6.58998
      H   12    0.21046      0.00000     0.78822    0.00133     0.78954
      H   13    0.21660      0.00000     0.78205    0.00135     0.78340
      H   14    0.20993      0.00000     0.78876    0.00130     0.79007
     Br   15    0.05627     27.99927     6.92564    0.01882    34.94373
 =======================================================================
   * Total *    0.00000     41.99223    41.85528    0.15249    84.00000

                                 Natural Population      
 --------------------------------------------------------
   Core                      41.99223 ( 99.9815% of  42)
   Valence                   41.85528 ( 99.6554% of  42)
   Natural Minimal Basis     83.84751 ( 99.8185% of  84)
   Natural Rydberg Basis      0.15249 (  0.1815% of  84)
 --------------------------------------------------------

    Atom  No          Natural Electron Configuration
 ----------------------------------------------------------------------------
      C    1      [core]2S( 0.95)2p( 3.11)3p( 0.01)4p( 0.01)
      C    2      [core]2S( 0.95)2p( 3.27)4p( 0.01)
      C    3      [core]2S( 0.95)2p( 3.21)4p( 0.01)
      C    4      [core]2S( 0.94)2p( 3.25)4p( 0.01)
      C    5      [core]2S( 0.89)2p( 3.11)4p( 0.01)
      C    6      [core]2S( 0.94)2p( 3.28)4p( 0.01)
      H    7            1S( 0.78)
      H    8            1S( 0.79)
      H    9            1S( 0.79)
      H   10            1S( 0.78)
      C   11      [core]2S( 1.08)2p( 3.50)4p( 0.01)
      H   12            1S( 0.79)
      H   13            1S( 0.78)
      H   14            1S( 0.79)
     Br   15      [core]4S( 1.87)4p( 5.06)4d( 0.01)5p( 0.01)


 NBO analysis skipped by request.
 1\1\GINC-COREV3-23-033\SP\RB3LYP\6-311+G(d,p)\C7H7Br1\ROOT\02-Aug-2021
 \0\\# b3lyp/6-311+g(d,p) geom=connectivity pop=(hirshfeld,mbs,npa)\\Ta
 ble13_2\\0,1\C,0,0.23884,0.212521,0.001079\C,0,-0.118039,1.556398,0.00
 7754\C,0,-1.473869,1.879266,0.002322\C,0,-2.442495,0.878649,-0.008414\
 C,0,-2.078206,-0.471768,-0.01149\C,0,-0.716974,-0.797593,-0.009883\H,0
 ,0.639249,2.329137,0.012835\H,0,-1.772089,2.921733,0.002725\H,0,-3.493
 128,1.14878,-0.016683\H,0,-0.406066,-1.835377,-0.018955\C,0,-3.1239,-1
 .560665,0.009523\H,0,-2.773436,-2.461095,-0.49966\H,0,-3.373738,-1.841
 099,1.038455\H,0,-4.046581,-1.233221,-0.474534\Br,0,2.10039,-0.263135,
 0.000299\\Version=ES64L-G09RevD.01\State=1-A\HF=-2845.1818515\RMSD=1.0
 80e-09\Dipole=-0.8579397,0.0477603,0.0145869\Quadrupole=1.5978293,2.51
 69515,-4.1147809,0.6442373,-0.0637115,-0.0118117\PG=C01 [X(C7H7Br1)]\\
 @


 PENOTUS DIED A HUNDRED YEARS OLD WANTING BUT TWO...
 AND HE USED TO SAY BEFORE HE DIED, HAVING SPENT HIS
 WHOLE LIFE IN VAINLY SEARCHING AFTER THE PHILOSOPHER'S
 STONE, THAT IF HE HAD A MORTAL ENEMY HE DID NOT DARE
 TO ENCOUNTER OPENLY, HE WOULD ADVISE HIM ABOVE ALL
 THINGS TO GIVE HIMSELF UP TO THE STUDY AND PRACTICE
 OF ALCHEMY.  --  NICOLAS LEMERY, M.D.
 "A COURSE OF CHYMISTRY", WALTER KETTILBY, LONDON, 1686
 Job cpu time:       0 days  0 hours  6 minutes 19.9 seconds.
 File lengths (MBytes):  RWF=     70 Int=      0 D2E=      0 Chk=      3 Scr=      1
 Normal termination of Gaussian 09 at Mon Aug  2 15:20:03 2021.
