 Entering Gaussian System, Link 0=g09
 Initial command:
 /cm/shared/apps/gaussian/g09revD.01/g09/l1.exe "//home/sweav003/CHB/CHActivation_Mkhalid/OtherCharges/G09-Table13_2_ESP_fixed.com.o10467718.tmp/Gau-142825.inp" -scrdir="//home/sweav003/CHB/CHActivation_Mkhalid/OtherCharges/G09-Table13_2_ESP_fixed.com.o10467718.tmp/"
 Entering Link 1 = /cm/shared/apps/gaussian/g09revD.01/g09/l1.exe PID=    142826.
  
 Copyright (c) 1988,1990,1992,1993,1995,1998,2003,2009,2013,
            Gaussian, Inc.  All Rights Reserved.
  
 This is part of the Gaussian(R) 09 program.  It is based on
 the Gaussian(R) 03 system (copyright 2003, Gaussian, Inc.),
 the Gaussian(R) 98 system (copyright 1998, Gaussian, Inc.),
 the Gaussian(R) 94 system (copyright 1995, Gaussian, Inc.),
 the Gaussian 92(TM) system (copyright 1992, Gaussian, Inc.),
 the Gaussian 90(TM) system (copyright 1990, Gaussian, Inc.),
 the Gaussian 88(TM) system (copyright 1988, Gaussian, Inc.),
 the Gaussian 86(TM) system (copyright 1986, Carnegie Mellon
 University), and the Gaussian 82(TM) system (copyright 1983,
 Carnegie Mellon University). Gaussian is a federally registered
 trademark of Gaussian, Inc.
  
 This software contains proprietary and confidential information,
 including trade secrets, belonging to Gaussian, Inc.
  
 This software is provided under written license and may be
 used, copied, transmitted, or stored only in accord with that
 written license.
  
 The following legend is applicable only to US Government
 contracts under FAR:
  
                    RESTRICTED RIGHTS LEGEND
  
 Use, reproduction and disclosure by the US Government is
 subject to restrictions as set forth in subparagraphs (a)
 and (c) of the Commercial Computer Software - Restricted
 Rights clause in FAR 52.227-19.
  
 Gaussian, Inc.
 340 Quinnipiac St., Bldg. 40, Wallingford CT 06492
  
  
 ---------------------------------------------------------------
 Warning -- This program may not be used in any manner that
 competes with the business of Gaussian, Inc. or will provide
 assistance to any competitor of Gaussian, Inc.  The licensee
 of this program is prohibited from giving any competitor of
 Gaussian, Inc. access to this program.  By using this program,
 the user acknowledges that Gaussian, Inc. is engaged in the
 business of creating and licensing software in the field of
 computational chemistry and represents and warrants to the
 licensee that it is not a competitor of Gaussian, Inc. and that
 it will not use this program in any manner prohibited above.
 ---------------------------------------------------------------
  

 Cite this work as:
 Gaussian 09, Revision D.01,
 M. J. Frisch, G. W. Trucks, H. B. Schlegel, G. E. Scuseria, 
 M. A. Robb, J. R. Cheeseman, G. Scalmani, V. Barone, B. Mennucci, 
 G. A. Petersson, H. Nakatsuji, M. Caricato, X. Li, H. P. Hratchian, 
 A. F. Izmaylov, J. Bloino, G. Zheng, J. L. Sonnenberg, M. Hada, 
 M. Ehara, K. Toyota, R. Fukuda, J. Hasegawa, M. Ishida, T. Nakajima, 
 Y. Honda, O. Kitao, H. Nakai, T. Vreven, J. A. Montgomery, Jr., 
 J. E. Peralta, F. Ogliaro, M. Bearpark, J. J. Heyd, E. Brothers, 
 K. N. Kudin, V. N. Staroverov, T. Keith, R. Kobayashi, J. Normand, 
 K. Raghavachari, A. Rendell, J. C. Burant, S. S. Iyengar, J. Tomasi, 
 M. Cossi, N. Rega, J. M. Millam, M. Klene, J. E. Knox, J. B. Cross, 
 V. Bakken, C. Adamo, J. Jaramillo, R. Gomperts, R. E. Stratmann, 
 O. Yazyev, A. J. Austin, R. Cammi, C. Pomelli, J. W. Ochterski, 
 R. L. Martin, K. Morokuma, V. G. Zakrzewski, G. A. Voth, 
 P. Salvador, J. J. Dannenberg, S. Dapprich, A. D. Daniels, 
 O. Farkas, J. B. Foresman, J. V. Ortiz, J. Cioslowski, 
 and D. J. Fox, Gaussian, Inc., Wallingford CT, 2013.
 
 ******************************************
 Gaussian 09:  ES64L-G09RevD.01 24-Apr-2013
                20-Apr-2023 
 ******************************************
 %nprocshared=20
 Will use up to   20 processors via shared memory.
 %mem=4GB
 %chk=Table13_2.chk
 ----------------------------------------------------------------------
 # b3lyp/6-311+g(d,p) pop=(chelpg, Dipole,ReadRadii,npa) Density=CHK SC
 F=Direct Geom=(checkpoint,NoDistance,NoAngle)
 ----------------------------------------------------------------------
 Warning!  Basis set taken from checkpoint file.
 1/29=2,38=1/1;
 2/9=11,12=2,40=1/2;
 3/5=7,6=2,7=111,11=2,14=-4,16=1,25=1,30=1,67=1,74=-5,89=1/1,2,3;
 4//1;
 6/7=2,8=2,9=2,10=2,11=2,15=24,20=103,22=10,28=1,40=-1/1,2,7;
 99/5=2/99;
 --------
 Chart6_2
 --------
 Structure from the checkpoint file:  "Table13_2.chk"
 Charge =  0 Multiplicity = 1
 Redundant internal coordinates found in file.
 C,0,0.3929091692,-0.3878210165,0.0017499527
 C,0,1.7831016545,-0.4142395295,0.010606123
 C,0,2.4663774931,0.8005138504,0.0030343095
 C,0,1.7707236791,2.0069258713,-0.0119150449
 C,0,0.3721997955,2.0280275554,-0.0171709498
 C,0,-0.3153979455,0.8088832925,-0.0134190971
 H,0,2.3177887877,-1.3548123965,0.0189602738
 H,0,3.5506590872,0.8005673379,0.0050846676
 H,0,2.3193719656,2.9427440417,-0.0217990873
 H,0,-1.3986541082,0.7953208207,-0.0241012061
 C,0,-0.3871837687,3.3328950594,-0.0007250995
 H,0,-1.3485005031,3.2422218137,-0.5111339318
 H,0,-0.5896644907,3.6529087611,1.0270671222
 H,0,0.1821032577,4.1286894972,-0.4860013524
 Br,0,-0.5763246834,-2.0467967687,0.0038377501
 Recover connectivity data from disk.
                          Input orientation:                          
 ---------------------------------------------------------------------
 Center     Atomic      Atomic             Coordinates (Angstroms)
 Number     Number       Type             X           Y           Z
 ---------------------------------------------------------------------
      1          6           0        0.392909   -0.387821    0.001750
      2          6           0        1.783102   -0.414240    0.010606
      3          6           0        2.466377    0.800514    0.003034
      4          6           0        1.770724    2.006926   -0.011915
      5          6           0        0.372200    2.028028   -0.017171
      6          6           0       -0.315398    0.808883   -0.013419
      7          1           0        2.317789   -1.354812    0.018960
      8          1           0        3.550659    0.800567    0.005085
      9          1           0        2.319372    2.942744   -0.021799
     10          1           0       -1.398654    0.795321   -0.024101
     11          6           0       -0.387184    3.332895   -0.000725
     12          1           0       -1.348501    3.242222   -0.511134
     13          1           0       -0.589664    3.652909    1.027067
     14          1           0        0.182103    4.128689   -0.486001
     15         35           0       -0.576325   -2.046797    0.003838
 ---------------------------------------------------------------------
 Stoichiometry    C7H7Br
 Framework group  C1[X(C7H7Br)]
 Deg. of freedom    39
 Full point group                 C1      NOp   1
 Largest Abelian subgroup         C1      NOp   1
 Largest concise Abelian subgroup C1      NOp   1
                         Standard orientation:                         
 ---------------------------------------------------------------------
 Center     Atomic      Atomic             Coordinates (Angstroms)
 Number     Number       Type             X           Y           Z
 ---------------------------------------------------------------------
      1          6           0        0.238840    0.212521    0.001079
      2          6           0       -0.118039    1.556398    0.007754
      3          6           0       -1.473869    1.879266    0.002322
      4          6           0       -2.442495    0.878649   -0.008414
      5          6           0       -2.078206   -0.471768   -0.011490
      6          6           0       -0.716974   -0.797593   -0.009883
      7          1           0        0.639249    2.329137    0.012835
      8          1           0       -1.772089    2.921733    0.002725
      9          1           0       -3.493128    1.148780   -0.016683
     10          1           0       -0.406066   -1.835377   -0.018955
     11          6           0       -3.123900   -1.560665    0.009523
     12          1           0       -2.773436   -2.461095   -0.499660
     13          1           0       -3.373738   -1.841099    1.038455
     14          1           0       -4.046581   -1.233221   -0.474534
     15         35           0        2.100390   -0.263135    0.000299
 ---------------------------------------------------------------------
 Rotational constants (GHZ):      3.2152386      0.7555954      0.6141530
 Basis read from chk: "Table13_2.chk" (5D, 7F)
 There are   254 symmetry adapted cartesian basis functions of A   symmetry.
 There are   244 symmetry adapted basis functions of A   symmetry.
   244 basis functions,   402 primitive gaussians,   254 cartesian basis functions
    42 alpha electrons       42 beta electrons
       nuclear repulsion energy       520.9571540976 Hartrees.
 NAtoms=   15 NActive=   15 NUniq=   15 SFac= 1.00D+00 NAtFMM=   60 NAOKFM=F Big=F
 Integral buffers will be    131072 words long.
 Raffenetti 2 integral format.
 Two-electron integral symmetry is turned on.
 One-electron integrals computed using PRISM.
 NBasis=   244 RedAO= T EigKep=  2.90D-06  NBF=   244
 NBsUse=   244 1.00D-06 EigRej= -1.00D+00 NBFU=   244
 ExpMin= 3.50D-02 ExpMax= 4.40D+05 ExpMxC= 1.51D+04 IAcc=3 IRadAn=         5 AccDes= 0.00D+00
 Harris functional with IExCor=  402 and IRadAn=       5 diagonalized for initial guess.
 HarFok:  IExCor=  402 AccDes= 0.00D+00 IRadAn=         5 IDoV= 1 UseB2=F ITyADJ=14
 ICtDFT=  3500011 ScaDFX=  1.000000  1.000000  1.000000  1.000000
 FoFCou: FMM=F IPFlag=           0 FMFlag=      100000 FMFlg1=           0
         NFxFlg=           0 DoJE=T BraDBF=F KetDBF=T FulRan=T
         wScrn=  0.000000 ICntrl=     500 IOpCl=  0 I1Cent=   200000004 NGrid=           0
         NMat0=    1 NMatS0=      1 NMatT0=    0 NMatD0=    1 NMtDS0=    0 NMtDT0=    0
 Petite list used in FoFCou.
 Using densities on the checkpoint file.

 **********************************************************************

            Population analysis using the SCF density.

 **********************************************************************

 Orbital symmetries:
       Occupied  (A) (A) (A) (A) (A) (A) (A) (A) (A) (A) (A) (A)
                 (A) (A) (A) (A) (A) (A) (A) (A) (A) (A) (A) (A)
                 (A) (A) (A) (A) (A) (A) (A) (A) (A) (A) (A) (A)
                 (A) (A) (A) (A) (A) (A)
       Virtual   (A) (A) (A) (A) (A) (A) (A) (A) (A) (A) (A) (A)
                 (A) (A) (A) (A) (A) (A) (A) (A) (A) (A) (A) (A)
                 (A) (A) (A) (A) (A) (A) (A) (A) (A) (A) (A) (A)
                 (A) (A) (A) (A) (A) (A) (A) (A) (A) (A) (A) (A)
                 (A) (A) (A) (A) (A) (A) (A) (A) (A) (A) (A) (A)
                 (A) (A) (A) (A) (A) (A) (A) (A) (A) (A) (A) (A)
                 (A) (A) (A) (A) (A) (A) (A) (A) (A) (A) (A) (A)
                 (A) (A) (A) (A) (A) (A) (A) (A) (A) (A) (A) (A)
                 (A) (A) (A) (A) (A) (A) (A) (A) (A) (A) (A) (A)
                 (A) (A) (A) (A) (A) (A) (A) (A) (A) (A) (A) (A)
                 (A) (A) (A) (A) (A) (A) (A) (A) (A) (A) (A) (A)
                 (A) (A) (A) (A) (A) (A) (A) (A) (A) (A) (A) (A)
                 (A) (A) (A) (A) (A) (A) (A) (A) (A) (A) (A) (A)
                 (A) (A) (A) (A) (A) (A) (A) (A) (A) (A) (A) (A)
                 (A) (A) (A) (A) (A) (A) (A) (A) (A) (A) (A) (A)
                 (A) (A) (A) (A) (A) (A) (A) (A) (A) (A) (A) (A)
                 (A) (A) (A) (A) (A) (A) (A) (A) (A) (A)
 The electronic state is 1-A.
 Alpha  occ. eigenvalues -- -482.82964 -62.48250 -56.30283 -56.29900 -56.29888
 Alpha  occ. eigenvalues --  -10.23689 -10.20027 -10.19054 -10.18983 -10.18942
 Alpha  occ. eigenvalues --  -10.18449 -10.17905  -8.69217  -6.52350  -6.51069
 Alpha  occ. eigenvalues --   -6.51046  -2.63445  -2.63076  -2.63061  -2.62044
 Alpha  occ. eigenvalues --   -2.62043  -0.88415  -0.81508  -0.78324  -0.73629
 Alpha  occ. eigenvalues --   -0.70231  -0.61859  -0.59313  -0.52421  -0.48576
 Alpha  occ. eigenvalues --   -0.46069  -0.43502  -0.43031  -0.42373  -0.40187
 Alpha  occ. eigenvalues --   -0.38511  -0.36375  -0.35628  -0.31603  -0.29314
 Alpha  occ. eigenvalues --   -0.26482  -0.24955
 Alpha virt. eigenvalues --   -0.02987  -0.02714  -0.01686  -0.00060   0.01412
 Alpha virt. eigenvalues --    0.01690   0.03756   0.03847   0.04474   0.04827
 Alpha virt. eigenvalues --    0.06107   0.06657   0.06850   0.07745   0.08295
 Alpha virt. eigenvalues --    0.09618   0.10496   0.11030   0.11505   0.11748
 Alpha virt. eigenvalues --    0.12656   0.13526   0.14328   0.15204   0.15653
 Alpha virt. eigenvalues --    0.16451   0.16656   0.17281   0.18009   0.18471
 Alpha virt. eigenvalues --    0.19170   0.20007   0.20128   0.20676   0.21957
 Alpha virt. eigenvalues --    0.22409   0.23368   0.23820   0.24718   0.24961
 Alpha virt. eigenvalues --    0.26030   0.26938   0.27200   0.29661   0.30563
 Alpha virt. eigenvalues --    0.31034   0.31809   0.33356   0.39919   0.42270
 Alpha virt. eigenvalues --    0.43709   0.44892   0.45588   0.46255   0.49891
 Alpha virt. eigenvalues --    0.50897   0.52641   0.53550   0.54192   0.54848
 Alpha virt. eigenvalues --    0.55729   0.57028   0.58338   0.59478   0.60298
 Alpha virt. eigenvalues --    0.61684   0.62490   0.62893   0.63552   0.64290
 Alpha virt. eigenvalues --    0.66870   0.66975   0.68150   0.69127   0.71011
 Alpha virt. eigenvalues --    0.72841   0.73795   0.74295   0.75009   0.77050
 Alpha virt. eigenvalues --    0.81802   0.82127   0.84671   0.85411   0.86599
 Alpha virt. eigenvalues --    0.88077   0.91384   0.91702   0.94492   0.96452
 Alpha virt. eigenvalues --    0.99654   1.00154   1.01263   1.04389   1.08981
 Alpha virt. eigenvalues --    1.10304   1.10514   1.11853   1.24726   1.29949
 Alpha virt. eigenvalues --    1.34732   1.35799   1.40183   1.45720   1.47841
 Alpha virt. eigenvalues --    1.50333   1.51396   1.54074   1.55397   1.55804
 Alpha virt. eigenvalues --    1.58657   1.59810   1.61183   1.62442   1.66613
 Alpha virt. eigenvalues --    1.68636   1.70445   1.71489   1.74689   1.80477
 Alpha virt. eigenvalues --    1.82964   1.88174   1.90065   1.91159   1.91793
 Alpha virt. eigenvalues --    1.93458   1.96655   1.97713   1.99962   2.00701
 Alpha virt. eigenvalues --    2.02778   2.04440   2.04878   2.11309   2.16224
 Alpha virt. eigenvalues --    2.19458   2.21648   2.27631   2.31161   2.33354
 Alpha virt. eigenvalues --    2.36790   2.38289   2.39725   2.43083   2.50082
 Alpha virt. eigenvalues --    2.53217   2.53892   2.58567   2.58944   2.64735
 Alpha virt. eigenvalues --    2.65323   2.67150   2.69716   2.73238   2.74354
 Alpha virt. eigenvalues --    2.75584   2.77441   2.78605   2.81546   2.83465
 Alpha virt. eigenvalues --    2.87348   2.88641   2.91105   2.91711   3.07838
 Alpha virt. eigenvalues --    3.09791   3.14641   3.20227   3.34102   3.36181
 Alpha virt. eigenvalues --    3.49245   3.58972   3.64388   3.74066   3.79672
 Alpha virt. eigenvalues --    3.81463   4.00276   4.09734   4.12911   4.14257
 Alpha virt. eigenvalues --    4.19592   4.21873   4.31677   4.37781   4.57523
 Alpha virt. eigenvalues --    4.83343   6.74653   7.55770   7.68285   7.74327
 Alpha virt. eigenvalues --   23.52800  23.89443  23.92357  23.96917  24.06346
 Alpha virt. eigenvalues --   24.07615  24.17332  48.00548 289.75528 289.88266
 Alpha virt. eigenvalues --  289.966611020.81236
          Condensed to atoms (all electrons):
               1          2          3          4          5          6
     1  C    6.257008   0.092269   0.283214  -0.638653   0.406569  -0.387978
     2  C    0.092269   6.190610   0.182590  -0.002257  -0.861036   0.051218
     3  C    0.283214   0.182590   5.775237   0.137840   0.419480  -0.935404
     4  C   -0.638653  -0.002257   0.137840   7.138968  -0.406524   0.026647
     5  C    0.406569  -0.861036   0.419480  -0.406524   7.512743  -0.965862
     6  C   -0.387978   0.051218  -0.935404   0.026647  -0.965862   8.239401
     7  H   -0.024633   0.393079   0.001297  -0.022670   0.028571  -0.021074
     8  H   -0.008298  -0.004999   0.378552  -0.028814   0.017922  -0.014587
     9  H    0.003806  -0.007948   0.027426   0.297682  -0.008472  -0.012370
    10  H   -0.004248   0.013296  -0.004973  -0.000343   0.000313   0.300034
    11  C   -0.317676   0.155729  -0.226382   0.025239  -0.908972   0.251193
    12  H    0.024609   0.002822  -0.006804  -0.089199  -0.141285   0.146525
    13  H    0.014374  -0.009445   0.007824  -0.032286   0.105960  -0.069207
    14  H   -0.004255   0.003489   0.025492   0.124393  -0.129971  -0.080652
    15  Br  -0.261135   0.118178   0.007412   0.079537  -0.039210   0.239468
               7          8          9         10         11         12
     1  C   -0.024633  -0.008298   0.003806  -0.004248  -0.317676   0.024609
     2  C    0.393079  -0.004999  -0.007948   0.013296   0.155729   0.002822
     3  C    0.001297   0.378552   0.027426  -0.004973  -0.226382  -0.006804
     4  C   -0.022670  -0.028814   0.297682  -0.000343   0.025239  -0.089199
     5  C    0.028571   0.017922  -0.008472   0.000313  -0.908972  -0.141285
     6  C   -0.021074  -0.014587  -0.012370   0.300034   0.251193   0.146525
     7  H    0.517464  -0.007806  -0.000216  -0.000165   0.001540  -0.000002
     8  H   -0.007806   0.535691  -0.007863   0.000061   0.008242   0.000014
     9  H   -0.000216  -0.007863   0.543438  -0.000233   0.042535   0.000214
    10  H   -0.000165   0.000061  -0.000233   0.523201   0.045471   0.000991
    11  C    0.001540   0.008242   0.042535   0.045471   6.339988   0.428819
    12  H   -0.000002   0.000014   0.000214   0.000991   0.428819   0.544689
    13  H    0.000000   0.000008   0.000345   0.000321   0.338208  -0.027340
    14  H   -0.000001  -0.000007   0.000960   0.000248   0.426638  -0.028107
    15  Br  -0.009237  -0.000516  -0.000530  -0.010547  -0.007909   0.000137
              13         14         15
     1  C    0.014374  -0.004255  -0.261135
     2  C   -0.009445   0.003489   0.118178
     3  C    0.007824   0.025492   0.007412
     4  C   -0.032286   0.124393   0.079537
     5  C    0.105960  -0.129971  -0.039210
     6  C   -0.069207  -0.080652   0.239468
     7  H    0.000000  -0.000001  -0.009237
     8  H    0.000008  -0.000007  -0.000516
     9  H    0.000345   0.000960  -0.000530
    10  H    0.000321   0.000248  -0.010547
    11  C    0.338208   0.426638  -0.007909
    12  H   -0.027340  -0.028107   0.000137
    13  H    0.525860  -0.026701  -0.000013
    14  H   -0.026701   0.545595  -0.000012
    15  Br  -0.000013  -0.000012  35.042161
 Mulliken charges:
               1
     1  C    0.565028
     2  C   -0.317593
     3  C   -0.072801
     4  C   -0.609559
     5  C    0.969774
     6  C   -0.767354
     7  H    0.143853
     8  H    0.132399
     9  H    0.121226
    10  H    0.136573
    11  C   -0.602662
    12  H    0.143917
    13  H    0.172091
    14  H    0.142892
    15  Br  -0.157783
 Sum of Mulliken charges =   0.00000
 Mulliken charges with hydrogens summed into heavy atoms:
               1
     1  C    0.565028
     2  C   -0.173740
     3  C    0.059598
     4  C   -0.488333
     5  C    0.969774
     6  C   -0.630781
    11  C   -0.143761
    15  Br  -0.157783
 APT charges:
               1
     1  C    0.410415
     2  C   -0.189725
     3  C    0.031485
     4  C   -0.108763
     5  C    0.126981
     6  C   -0.202721
     7  H    0.063442
     8  H    0.026441
     9  H    0.032357
    10  H    0.056554
    11  C    0.059378
    12  H   -0.006434
    13  H   -0.019597
    14  H   -0.011842
    15  Br  -0.267971
 Sum of APT charges =   0.00000
 APT charges with hydrogens summed into heavy atoms:
               1
     1  C    0.410415
     2  C   -0.126283
     3  C    0.057926
     4  C   -0.076406
     5  C    0.126981
     6  C   -0.146166
    11  C    0.021505
    15  Br  -0.267971
 Electronic spatial extent (au):  <R**2>=           1689.5110
 Charge=              0.0000 electrons
 Dipole moment (field-independent basis, Debye):
    X=             -2.1807    Y=              0.1214    Z=              0.0371  Tot=              2.1844
 Quadrupole moment (field-independent basis, Debye-Ang):
   XX=            -56.3595   YY=            -55.1233   ZZ=            -64.0432
   XY=              0.8665   XZ=             -0.0857   YZ=             -0.0159
 Traceless Quadrupole moment (field-independent basis, Debye-Ang):
   XX=              2.1491   YY=              3.3854   ZZ=             -5.5345
   XY=              0.8665   XZ=             -0.0857   YZ=             -0.0159
 Octapole moment (field-independent basis, Debye-Ang**2):
  XXX=             51.6528  YYY=             -1.9803  ZZZ=              0.7587  XYY=             16.8386
  XXY=             -4.1317  XXZ=             -0.1039  XZZ=             24.8969  YZZ=             -6.2584
  YYZ=             -0.2492  XYZ=              0.4227
 Hexadecapole moment (field-independent basis, Debye-Ang**3):
 XXXX=          -1400.1683 YYYY=           -480.0198 ZZZZ=            -84.0288 XXXY=            -29.0880
 XXXZ=              2.9352 YYYX=            -21.5580 YYYZ=              1.9375 ZZZX=             -2.4750
 ZZZY=             -1.3458 XXYY=           -323.1020 XXZZ=           -273.4955 YYZZ=           -107.2828
 XXYZ=             -1.7783 YYXZ=             -0.1412 ZZXY=              0.5615
 N-N= 5.209571540976D+02 E-N=-7.822980027483D+03  KE= 2.840825360898D+03
 Breneman (CHELPG) radii used.
 Read replacement radii for each type of atom:
 Rad(35) =   1.850000000000D+00
 Atom Element Radius
    1     6    1.50
    2     6    1.50
    3     6    1.50
    4     6    1.50
    5     6    1.50
    6     6    1.50
    7     1    1.45
    8     1    1.45
    9     1    1.45
   10     1    1.45
   11     6    1.50
   12     1    1.45
   13     1    1.45
   14     1    1.45
   15    35    1.85
 Generate Potential Derived Charges using the Breneman model, NDens= 1.
 Grid spacing= 0.300 Box extension= 2.800
 NStep X,Y,Z=   41     37     25   Total possible points=       37925
 Number of Points to Fit=   11235

 **********************************************************************

            Electrostatic Properties Using The SCF Density

 **********************************************************************

       Atomic Center    1 is at   0.238840  0.212521  0.001079
       Atomic Center    2 is at  -0.118039  1.556398  0.007754
       Atomic Center    3 is at  -1.473869  1.879266  0.002322
       Atomic Center    4 is at  -2.442495  0.878649 -0.008414
       Atomic Center    5 is at  -2.078206 -0.471768 -0.011490
       Atomic Center    6 is at  -0.716974 -0.797593 -0.009883
       Atomic Center    7 is at   0.639249  2.329137  0.012835
       Atomic Center    8 is at  -1.772089  2.921733  0.002725
       Atomic Center    9 is at  -3.493128  1.148780 -0.016683
       Atomic Center   10 is at  -0.406066 -1.835377 -0.018955
       Atomic Center   11 is at  -3.123900 -1.560665  0.009523
       Atomic Center   12 is at  -2.773436 -2.461095 -0.499660
       Atomic Center   13 is at  -3.373738 -1.841099  1.038455
       Atomic Center   14 is at  -4.046581 -1.233221 -0.474534
       Atomic Center   15 is at   2.100390 -0.263135  0.000299
   11235 points will be used for fitting atomic charges
 Fitting point charges to electrostatic potential
 The dipole moment will be constrained to the correct value
 Charges from ESP fit, RMS=   0.00540 RRMS=   0.54609:
 ESP charges:
               1
     1  C    0.095354
     2  C   -0.090745
     3  C   -0.068433
     4  C   -0.204909
     5  C    0.156313
     6  C   -0.157949
     7  H    0.078837
     8  H    0.095153
     9  H    0.118848
    10  H    0.095296
    11  C   -0.149074
    12  H    0.051084
    13  H    0.056023
    14  H    0.045707
    15  Br  -0.121507
 Sum of ESP charges =   0.00000
 ESP charges with hydrogens summed into heavy atoms:
               1
     1  C    0.095354
     2  C   -0.011908
     3  C    0.026720
     4  C   -0.086060
     5  C    0.156313
     6  C   -0.062653
    11  C    0.003740
    15  Br  -0.121507
 Charge=   0.00000 Dipole=    -2.1807     0.1214     0.0371 Tot=     2.1844
 -----------------------------------------------------------------

              Electrostatic Properties (Atomic Units)

 -----------------------------------------------------------------
    Center     Electric         -------- Electric Field --------
               Potential          X             Y             Z
 -----------------------------------------------------------------
    1 Atom    -14.714609
    2 Atom    -14.761466
    3 Atom    -14.761140
    4 Atom    -14.766866
    5 Atom    -14.750487
    6 Atom    -14.762222
    7 Atom     -1.094006
    8 Atom     -1.096962
    9 Atom     -1.099345
   10 Atom     -1.093926
   11 Atom    -14.766698
   12 Atom     -1.107664
   13 Atom     -1.105509
   14 Atom     -1.107626
   15 Atom   -175.818850
 -----------------------------------------------------------------
 ******************************Gaussian NBO Version 3.1******************************
             N A T U R A L   A T O M I C   O R B I T A L   A N D
          N A T U R A L   B O N D   O R B I T A L   A N A L Y S I S
 ******************************Gaussian NBO Version 3.1******************************
       /RESON  / : Allow strongly delocalized NBO set

 Analyzing the SCF density

 Job title: Chart6_2                                                        

 Storage needed:    179908 in NPA ( 536869637 available)


 NATURAL POPULATIONS:  Natural atomic orbital occupancies 
                                                          
   NAO  Atom  No  lang   Type(AO)    Occupancy      Energy
 ----------------------------------------------------------
     1    C    1  S      Cor( 1S)     1.99862      -1.00000
     2    C    1  S      Val( 2S)     0.95452      -1.00000
     3    C    1  S      Ryd( 3S)     0.00133      -1.00000
     4    C    1  S      Ryd( 4S)     0.00031      -1.00000
     5    C    1  S      Ryd( 5S)     0.00001      -1.00000
     6    C    1  px     Val( 2p)     0.97100      -1.00000
     7    C    1  px     Ryd( 3p)     0.00716      -1.00000
     8    C    1  px     Ryd( 4p)     0.00024      -1.00000
     9    C    1  px     Ryd( 5p)     0.00036      -1.00000
    10    C    1  py     Val( 2p)     1.07556      -1.00000
    11    C    1  py     Ryd( 3p)     0.00692      -1.00000
    12    C    1  py     Ryd( 4p)     0.00027      -1.00000
    13    C    1  py     Ryd( 5p)     0.00009      -1.00000
    14    C    1  pz     Val( 2p)     1.06723      -1.00000
    15    C    1  pz     Ryd( 3p)     0.00107      -1.00000
    16    C    1  pz     Ryd( 4p)     0.00040      -1.00000
    17    C    1  pz     Ryd( 5p)     0.00002      -1.00000
    18    C    1  dxy    Ryd( 3d)     0.00098      -1.00000
    19    C    1  dxz    Ryd( 3d)     0.00091      -1.00000
    20    C    1  dyz    Ryd( 3d)     0.00074      -1.00000
    21    C    1  dx2y2  Ryd( 3d)     0.00151      -1.00000
    22    C    1  dz2    Ryd( 3d)     0.00057      -1.00000

    23    C    2  S      Cor( 1S)     1.99894      -1.00000
    24    C    2  S      Val( 2S)     0.94604      -1.00000
    25    C    2  S      Ryd( 3S)     0.00178      -1.00000
    26    C    2  S      Ryd( 4S)     0.00024      -1.00000
    27    C    2  S      Ryd( 5S)     0.00001      -1.00000
    28    C    2  px     Val( 2p)     1.12853      -1.00000
    29    C    2  px     Ryd( 3p)     0.00691      -1.00000
    30    C    2  px     Ryd( 4p)     0.00030      -1.00000
    31    C    2  px     Ryd( 5p)     0.00012      -1.00000
    32    C    2  py     Val( 2p)     1.13609      -1.00000
    33    C    2  py     Ryd( 3p)     0.00513      -1.00000
    34    C    2  py     Ryd( 4p)     0.00028      -1.00000
    35    C    2  py     Ryd( 5p)     0.00010      -1.00000
    36    C    2  pz     Val( 2p)     1.00943      -1.00000
    37    C    2  pz     Ryd( 3p)     0.00139      -1.00000
    38    C    2  pz     Ryd( 4p)     0.00031      -1.00000
    39    C    2  pz     Ryd( 5p)     0.00002      -1.00000
    40    C    2  dxy    Ryd( 3d)     0.00077      -1.00000
    41    C    2  dxz    Ryd( 3d)     0.00046      -1.00000
    42    C    2  dyz    Ryd( 3d)     0.00050      -1.00000
    43    C    2  dx2y2  Ryd( 3d)     0.00079       0.00000
    44    C    2  dz2    Ryd( 3d)     0.00040       0.00000

    45    C    3  S      Cor( 1S)     1.99916       0.00000
    46    C    3  S      Val( 2S)     0.94895       0.00000
    47    C    3  S      Ryd( 3S)     0.00155       0.00000
    48    C    3  S      Ryd( 4S)     0.00018       0.00000
    49    C    3  S      Ryd( 5S)     0.00000       0.00000
    50    C    3  px     Val( 2p)     1.06130       0.00000
    51    C    3  px     Ryd( 3p)     0.00467       0.00000
    52    C    3  px     Ryd( 4p)     0.00043       0.00000
    53    C    3  px     Ryd( 5p)     0.00016       0.00000
    54    C    3  py     Val( 2p)     1.16525       0.00000
    55    C    3  py     Ryd( 3p)     0.00687       0.00000
    56    C    3  py     Ryd( 4p)     0.00030       0.00000
    57    C    3  py     Ryd( 5p)     0.00007       0.00000
    58    C    3  pz     Val( 2p)     0.98682       0.00000
    59    C    3  pz     Ryd( 3p)     0.00080       0.00000
    60    C    3  pz     Ryd( 4p)     0.00028       0.00000
    61    C    3  pz     Ryd( 5p)     0.00001       0.00000
    62    C    3  dxy    Ryd( 3d)     0.00066       0.00000
    63    C    3  dxz    Ryd( 3d)     0.00053       0.00000
    64    C    3  dyz    Ryd( 3d)     0.00039       0.00000
    65    C    3  dx2y2  Ryd( 3d)     0.00075       0.00000
    66    C    3  dz2    Ryd( 3d)     0.00040       0.00000

    67    C    4  S      Cor( 1S)     1.99905       0.00000
    68    C    4  S      Val( 2S)     0.94112       0.00000
    69    C    4  S      Ryd( 3S)     0.00124       0.00000
    70    C    4  S      Ryd( 4S)     0.00019       0.00000
    71    C    4  S      Ryd( 5S)     0.00001       0.00000
    72    C    4  px     Val( 2p)     1.16800       0.00000
    73    C    4  px     Ryd( 3p)     0.00606       0.00000
    74    C    4  px     Ryd( 4p)     0.00030       0.00000
    75    C    4  px     Ryd( 5p)     0.00005       0.00000
    76    C    4  py     Val( 2p)     1.07155       0.00000
    77    C    4  py     Ryd( 3p)     0.00407       0.00000
    78    C    4  py     Ryd( 4p)     0.00047       0.00000
    79    C    4  py     Ryd( 5p)     0.00016       0.00000
    80    C    4  pz     Val( 2p)     1.01237       0.00000
    81    C    4  pz     Ryd( 3p)     0.00110       0.00000
    82    C    4  pz     Ryd( 4p)     0.00029       0.00000
    83    C    4  pz     Ryd( 5p)     0.00002       0.00000
    84    C    4  dxy    Ryd( 3d)     0.00074       0.00000
    85    C    4  dxz    Ryd( 3d)     0.00039       0.00000
    86    C    4  dyz    Ryd( 3d)     0.00050       0.00000
    87    C    4  dx2y2  Ryd( 3d)     0.00077       0.00000
    88    C    4  dz2    Ryd( 3d)     0.00039       0.00000

    89    C    5  S      Cor( 1S)     1.99905       0.00000
    90    C    5  S      Val( 2S)     0.89084       0.00000
    91    C    5  S      Ryd( 3S)     0.00067       0.00000
    92    C    5  S      Ryd( 4S)     0.00023       0.00000
    93    C    5  S      Ryd( 5S)     0.00001       0.00000
    94    C    5  px     Val( 2p)     1.06211       0.00000
    95    C    5  px     Ryd( 3p)     0.00455       0.00000
    96    C    5  px     Ryd( 4p)     0.00052       0.00000
    97    C    5  px     Ryd( 5p)     0.00009       0.00000
    98    C    5  py     Val( 2p)     1.07349       0.00000
    99    C    5  py     Ryd( 3p)     0.00470       0.00000
   100    C    5  py     Ryd( 4p)     0.00036       0.00000
   101    C    5  py     Ryd( 5p)     0.00009       0.00000
   102    C    5  pz     Val( 2p)     0.97312       0.00000
   103    C    5  pz     Ryd( 3p)     0.00120       0.00000
   104    C    5  pz     Ryd( 4p)     0.00037       0.00000
   105    C    5  pz     Ryd( 5p)     0.00003       0.00000
   106    C    5  dxy    Ryd( 3d)     0.00077       0.00000
   107    C    5  dxz    Ryd( 3d)     0.00054       0.00000
   108    C    5  dyz    Ryd( 3d)     0.00062       0.00000
   109    C    5  dx2y2  Ryd( 3d)     0.00077       0.00000
   110    C    5  dz2    Ryd( 3d)     0.00026       0.00000

   111    C    6  S      Cor( 1S)     1.99884       0.00000
   112    C    6  S      Val( 2S)     0.93639       0.00000
   113    C    6  S      Ryd( 3S)     0.00178       0.00000
   114    C    6  S      Ryd( 4S)     0.00019       0.00000
   115    C    6  S      Ryd( 5S)     0.00001       0.00000
   116    C    6  px     Val( 2p)     1.08406       0.00000
   117    C    6  px     Ryd( 3p)     0.00533       0.00000
   118    C    6  px     Ryd( 4p)     0.00026       0.00000
   119    C    6  px     Ryd( 5p)     0.00013       0.00000
   120    C    6  py     Val( 2p)     1.18322       0.00000
   121    C    6  py     Ryd( 3p)     0.00591       0.00000
   122    C    6  py     Ryd( 4p)     0.00027       0.00000
   123    C    6  py     Ryd( 5p)     0.00006       0.00000
   124    C    6  pz     Val( 3p)     1.01022      -0.00012
   125    C    6  pz     Ryd( 5p)     0.00113       0.00002
   126    C    6  pz     Ryd( 4p)     0.00041       0.00001
   127    C    6  pz     Ryd( 2p)     0.00001      -0.00065
   128    C    6  dxy    Ryd( 3d)     0.00150       0.94027
   129    C    6  dxz    Ryd( 3d)     0.00028       0.34044
   130    C    6  dyz    Ryd( 3d)     0.00050       0.00041
   131    C    6  dx2y2  Ryd( 3d)     0.00119      -0.34044
   132    C    6  dz2    Ryd( 3d)     0.00120       0.94027

   133    H    7  S      Val( 3S)     0.77510       0.99539
   134    H    7  S      Ryd( 1S)     0.00066      -0.03411
   135    H    7  S      Ryd( 2S)     0.00019       0.00180
   136    H    7  px     Ryd( 2p)     0.00029      -0.00090
   137    H    7  py     Ryd( 2p)     0.00028      -0.00014
   138    H    7  pz     Ryd( 2p)     0.00019       0.00006

   139    H    8  S      Val( 2S)     0.78813       0.00000
   140    H    8  S      Ryd( 1S)     0.00069      -0.00342
   141    H    8  S      Ryd( 3S)     0.00017       0.03399
   142    H    8  px     Ryd( 2p)     0.00013       0.99797
   143    H    8  py     Ryd( 2p)     0.00040      -0.04447
   144    H    8  pz     Ryd( 2p)     0.00020       0.02984

   145    H    9  S      Val( 3S)     0.79187       0.00280
   146    H    9  S      Ryd( 1S)     0.00070      -0.00190
   147    H    9  S      Ryd( 2S)     0.00016      -0.00002
   148    H    9  px     Ryd( 2p)     0.00039       0.00002
   149    H    9  py     Ryd( 2p)     0.00015      -0.00029
   150    H    9  pz     Ryd( 2p)     0.00019       0.03947

   151    H   10  S      Val( 3S)     0.77765       0.97053
   152    H   10  S      Ryd( 2S)     0.00086       0.14451
   153    H   10  S      Ryd( 1S)     0.00015      -0.18874
   154    H   10  px     Ryd( 2p)     0.00023       0.00215
   155    H   10  py     Ryd( 2p)     0.00018       0.00098
   156    H   10  pz     Ryd( 2p)     0.00030      -0.00003

   157    C   11  S      Cor( 3S)     1.99930      -0.00008
   158    C   11  S      Val( 2S)     1.07854      -0.03078
   159    C   11  S      Ryd( 1S)     0.00056      -0.05446
   160    C   11  S      Ryd( 5S)     0.00012       0.90985
   161    C   11  S      Ryd( 4S)     0.00000       0.41019
   162    C   11  px     Val( 2p)     1.14791      -0.00006
   163    C   11  px     Ryd( 4p)     0.00258       0.00000
   164    C   11  px     Ryd( 3p)     0.00023       0.00000
   165    C   11  px     Ryd( 5p)     0.00005       0.00002
   166    C   11  py     Val( 3p)     1.14306       0.01920
   167    C   11  py     Ryd( 4p)     0.00240       0.23010
   168    C   11  py     Ryd( 2p)     0.00021      -0.38693
   169    C   11  py     Ryd( 5p)     0.00004       0.89022
   170    C   11  pz     Val( 2p)     1.21114      -0.06685
   171    C   11  pz     Ryd( 3p)     0.00058      -0.00299
   172    C   11  pz     Ryd( 4p)     0.00005      -0.00001
   173    C   11  pz     Ryd( 5p)     0.00005       0.00000
   174    C   11  dxy    Ryd( 3d)     0.00075       0.00310
   175    C   11  dxz    Ryd( 3d)     0.00057       0.01324
   176    C   11  dyz    Ryd( 3d)     0.00061      -0.02613
   177    C   11  dx2y2  Ryd( 3d)     0.00049       0.06008
   178    C   11  dz2    Ryd( 3d)     0.00071       0.99776

   179    H   12  S      Val( 2S)     0.78822       0.00000
   180    H   12  S      Ryd( 1S)     0.00071       0.00000
   181    H   12  S      Ryd( 3S)     0.00009       0.00000
   182    H   12  px     Ryd( 2p)     0.00014       0.00004
   183    H   12  py     Ryd( 2p)     0.00024      -0.00026
   184    H   12  pz     Ryd( 2p)     0.00015      -0.00130

   185    H   13  S      Val( 2S)     0.78205       0.00285
   186    H   13  S      Ryd( 1S)     0.00067      -0.00020
   187    H   13  S      Ryd( 3S)     0.00009       1.00000
   188    H   13  px     Ryd( 2p)     0.00016       0.00000
   189    H   13  py     Ryd( 2p)     0.00016       0.00000
   190    H   13  pz     Ryd( 2p)     0.00027       0.00009

   191    H   14  S      Val( 3S)     0.78876       0.00578
   192    H   14  S      Ryd( 1S)     0.00070      -0.00705
   193    H   14  S      Ryd( 2S)     0.00009       0.00046
   194    H   14  px     Ryd( 2p)     0.00025       0.99996
   195    H   14  py     Ryd( 2p)     0.00013       0.00000
   196    H   14  pz     Ryd( 2p)     0.00014       0.00000

   197   Br   15  S      Cor( 6S)     2.00000       0.00000
   198   Br   15  S      Cor( 5S)     2.00000       0.00000
   199   Br   15  S      Cor( 7S)     1.99977       0.00002
   200   Br   15  S      Val( 4S)     1.86553      -0.00001
   201   Br   15  S      Ryd( 2S)     0.00296      -0.00132
   202   Br   15  S      Ryd( 8S)     0.00022       0.00013
   203   Br   15  S      Ryd( 3S)     0.00000      -0.00001
   204   Br   15  S      Ryd( 9S)     0.00000       1.00000
   205   Br   15  S      Ryd( 1S)     0.00000      -0.12317
   206   Br   15  px     Cor( 6p)     2.00000       0.99353
   207   Br   15  px     Cor( 9p)     1.99986       1.02352
   208   Br   15  px     Val( 5p)     1.19594       0.11519
   209   Br   15  px     Ryd( 8p)     0.00485       0.99993
   210   Br   15  px     Ryd( 4p)     0.00007       0.03718
   211   Br   15  px     Ryd( 3p)     0.00001       0.00527
   212   Br   15  px     Ryd( 2p)     0.00000      -0.08090
   213   Br   15  px     Ryd( 7p)     0.00000       0.99611
   214   Br   15  py     Cor( 5p)     2.00000       0.01163
   215   Br   15  py     Cor( 2p)     1.99998      -0.55470
   216   Br   15  py     Val( 8p)     1.92548       0.70815
   217   Br   15  py     Ryd( 7p)     0.00183       0.53047
   218   Br   15  py     Ryd( 6p)     0.00007       0.05717
   219   Br   15  py     Ryd( 4p)     0.00001       0.00059
   220   Br   15  py     Ryd( 9p)     0.00000       0.77795
   221   Br   15  py     Ryd( 3p)     0.00000      -0.01312
   222   Br   15  pz     Cor( 8p)     2.00000       0.71052
   223   Br   15  pz     Cor( 6p)     1.99999       0.03322
   224   Br   15  pz     Val( 5p)     1.93870       0.00017
   225   Br   15  pz     Ryd( 7p)     0.00154       0.52818
   226   Br   15  pz     Ryd( 9p)     0.00005       0.79190
   227   Br   15  pz     Ryd( 2p)     0.00001      -0.49873
   228   Br   15  pz     Ryd( 3p)     0.00000      -0.05990
   229   Br   15  pz     Ryd( 4p)     0.00000      -0.00067
   230   Br   15  dxy    Cor( 3d)     1.99993       0.00000
   231   Br   15  dxy    Ryd( 4d)     0.00123       0.00000
   232   Br   15  dxy    Ryd( 5d)     0.00001       0.00000
   233   Br   15  dxz    Cor( 3d)     1.99995       0.00000
   234   Br   15  dxz    Ryd( 4d)     0.00212       0.00000
   235   Br   15  dxz    Ryd( 5d)     0.00001       0.00000
   236   Br   15  dyz    Cor( 3d)     1.99999       0.00000
   237   Br   15  dyz    Ryd( 4d)     0.00020       0.00000
   238   Br   15  dyz    Ryd( 5d)     0.00000       0.00000
   239   Br   15  dx2y2  Cor( 3d)     1.99985       0.00000
   240   Br   15  dx2y2  Ryd( 4d)     0.00256       0.00000
   241   Br   15  dx2y2  Ryd( 5d)     0.00001       0.00000
   242   Br   15  dz2    Cor( 3d)     1.99994       0.00000
   243   Br   15  dz2    Ryd( 4d)     0.00105       0.00000
   244   Br   15  dz2    Ryd( 5d)     0.00000       0.00000

 WARNING:  1 low occupancy (<1.9990e) core orbital  found on  C    1
           1 low occupancy (<1.9990e) core orbital  found on  C    2
           1 low occupancy (<1.9990e) core orbital  found on  C    6

 WARNING:  Population inversion found on atom  C    1
           Population inversion found on atom  C    6
           Population inversion found on atom  H    7
           Population inversion found on atom  H    8
           Population inversion found on atom  H    9
           Population inversion found on atom  H   10
           Population inversion found on atom  C   11
           Population inversion found on atom  H   12
           Population inversion found on atom  H   13
           Population inversion found on atom  H   14
           Population inversion found on atom Br   15


 Summary of Natural Population Analysis:                  
                                                          
                                       Natural Population 
                Natural  -----------------------------------------------
    Atom  No    Charge         Core      Valence    Rydberg      Total
 -----------------------------------------------------------------------
      C    1   -0.08984      1.99862     4.06830    0.02291     6.08984
      C    2   -0.23854      1.99894     4.22009    0.01951     6.23854
      C    3   -0.17951      1.99916     4.16231    0.01805     6.17951
      C    4   -0.20884      1.99905     4.19305    0.01675     6.20884
      C    5   -0.01438      1.99905     3.99956    0.01577     6.01438
      C    6   -0.23288      1.99884     4.21389    0.02015     6.23288
      H    7    0.22329      0.00000     0.77510    0.00161     0.77671
      H    8    0.21027      0.00000     0.78813    0.00160     0.78973
      H    9    0.20653      0.00000     0.79187    0.00160     0.79347
      H   10    0.22063      0.00000     0.77765    0.00172     0.77937
      C   11   -0.58998      1.99930     4.58066    0.01002     6.58998
      H   12    0.21046      0.00000     0.78822    0.00133     0.78954
      H   13    0.21660      0.00000     0.78205    0.00135     0.78340
      H   14    0.20993      0.00000     0.78876    0.00130     0.79007
     Br   15    0.05627     27.99927     6.92564    0.01882    34.94373
 =======================================================================
   * Total *    0.00000     41.99223    41.85528    0.15249    84.00000

                                 Natural Population      
 --------------------------------------------------------
   Core                      41.99223 ( 99.9815% of  42)
   Valence                   41.85528 ( 99.6554% of  42)
   Natural Minimal Basis     83.84751 ( 99.8185% of  84)
   Natural Rydberg Basis      0.15249 (  0.1815% of  84)
 --------------------------------------------------------

    Atom  No          Natural Electron Configuration
 ----------------------------------------------------------------------------
      C    1      [core]2S( 0.95)2p( 3.11)3p( 0.02)
      C    2      [core]2S( 0.95)2p( 3.27)3p( 0.01)
      C    3      [core]2S( 0.95)2p( 3.21)3p( 0.01)
      C    4      [core]2S( 0.94)2p( 3.25)3p( 0.01)
      C    5      [core]2S( 0.89)2p( 3.11)3p( 0.01)
      C    6      [core]2S( 0.94)2p( 2.27)3p( 1.02)
      H    7            3S( 0.78)
      H    8            2S( 0.79)
      H    9            3S( 0.79)
      H   10            3S( 0.78)
      C   11      [core]2S( 1.08)2p( 2.36)3p( 1.14)4p( 0.01)
      H   12            2S( 0.79)
      H   13            2S( 0.78)
      H   14            3S( 0.79)
     Br   15      [core]4S( 1.87)4d( 0.01)5p( 3.13)


 NBO analysis skipped by request.

 This type of calculation cannot be archived.


 THE BEST WAY TO CONVINCE A FOOL THAT HE IS WRONG 
 IS TO LET HIM HAVE HIS OWN WAY.

                                         JOSH BILLINGS
 Job cpu time:       0 days  0 hours  0 minutes 52.5 seconds.
 File lengths (MBytes):  RWF=     33 Int=      0 D2E=      0 Chk=      6 Scr=      1
 Normal termination of Gaussian 09 at Thu Apr 20 13:53:42 2023.
