	You are loading a legacy vmd module, please load an up to date module instead.


	 module load container_env vmd

	Please run vmd command with crun.vmd prepend to it:
	
	 crun.vmd vmd

	 
module: Command not found.
module: Command not found.
 Entering Gaussian System, Link 0=g09
 Initial command:
 /opt/gaussian/g09/l1.exe "/tmp/G09-4.com.o10577429.tmp/Gau-1231933.inp" -scrdir="/tmp/G09-4.com.o10577429.tmp/"
 Entering Link 1 = /opt/gaussian/g09/l1.exe PID=   1231934.
  
 Copyright (c) 1988,1990,1992,1993,1995,1998,2003,2009,2013,
            Gaussian, Inc.  All Rights Reserved.
  
 This is part of the Gaussian(R) 09 program.  It is based on
 the Gaussian(R) 03 system (copyright 2003, Gaussian, Inc.),
 the Gaussian(R) 98 system (copyright 1998, Gaussian, Inc.),
 the Gaussian(R) 94 system (copyright 1995, Gaussian, Inc.),
 the Gaussian 92(TM) system (copyright 1992, Gaussian, Inc.),
 the Gaussian 90(TM) system (copyright 1990, Gaussian, Inc.),
 the Gaussian 88(TM) system (copyright 1988, Gaussian, Inc.),
 the Gaussian 86(TM) system (copyright 1986, Carnegie Mellon
 University), and the Gaussian 82(TM) system (copyright 1983,
 Carnegie Mellon University). Gaussian is a federally registered
 trademark of Gaussian, Inc.
  
 This software contains proprietary and confidential information,
 including trade secrets, belonging to Gaussian, Inc.
  
 This software is provided under written license and may be
 used, copied, transmitted, or stored only in accord with that
 written license.
  
 The following legend is applicable only to US Government
 contracts under FAR:
  
                    RESTRICTED RIGHTS LEGEND
  
 Use, reproduction and disclosure by the US Government is
 subject to restrictions as set forth in subparagraphs (a)
 and (c) of the Commercial Computer Software - Restricted
 Rights clause in FAR 52.227-19.
  
 Gaussian, Inc.
 340 Quinnipiac St., Bldg. 40, Wallingford CT 06492
  
  
 ---------------------------------------------------------------
 Warning -- This program may not be used in any manner that
 competes with the business of Gaussian, Inc. or will provide
 assistance to any competitor of Gaussian, Inc.  The licensee
 of this program is prohibited from giving any competitor of
 Gaussian, Inc. access to this program.  By using this program,
 the user acknowledges that Gaussian, Inc. is engaged in the
 business of creating and licensing software in the field of
 computational chemistry and represents and warrants to the
 licensee that it is not a competitor of Gaussian, Inc. and that
 it will not use this program in any manner prohibited above.
 ---------------------------------------------------------------
  

 Cite this work as:
 Gaussian 09, Revision D.01,
 M. J. Frisch, G. W. Trucks, H. B. Schlegel, G. E. Scuseria, 
 M. A. Robb, J. R. Cheeseman, G. Scalmani, V. Barone, B. Mennucci, 
 G. A. Petersson, H. Nakatsuji, M. Caricato, X. Li, H. P. Hratchian, 
 A. F. Izmaylov, J. Bloino, G. Zheng, J. L. Sonnenberg, M. Hada, 
 M. Ehara, K. Toyota, R. Fukuda, J. Hasegawa, M. Ishida, T. Nakajima, 
 Y. Honda, O. Kitao, H. Nakai, T. Vreven, J. A. Montgomery, Jr., 
 J. E. Peralta, F. Ogliaro, M. Bearpark, J. J. Heyd, E. Brothers, 
 K. N. Kudin, V. N. Staroverov, T. Keith, R. Kobayashi, J. Normand, 
 K. Raghavachari, A. Rendell, J. C. Burant, S. S. Iyengar, J. Tomasi, 
 M. Cossi, N. Rega, J. M. Millam, M. Klene, J. E. Knox, J. B. Cross, 
 V. Bakken, C. Adamo, J. Jaramillo, R. Gomperts, R. E. Stratmann, 
 O. Yazyev, A. J. Austin, R. Cammi, C. Pomelli, J. W. Ochterski, 
 R. L. Martin, K. Morokuma, V. G. Zakrzewski, G. A. Voth, 
 P. Salvador, J. J. Dannenberg, S. Dapprich, A. D. Daniels, 
 O. Farkas, J. B. Foresman, J. V. Ortiz, J. Cioslowski, 
 and D. J. Fox, Gaussian, Inc., Wallingford CT, 2013.
 
 ******************************************
 Gaussian 09:  ES64L-G09RevD.01 24-Apr-2013
                23-Apr-2024 
 ******************************************
 %nprocshared=20
 Will use up to   20 processors via shared memory.
 %mem=4GB
 %chk=4.chk
 ----------------------------------------------------------------------
 # opt freq=noraman b3lyp/6-311+g(d,p) pop=(npa,hirshfeld,chelpg,mbs) g
 eom=connectivity
 ----------------------------------------------------------------------
 1/14=-1,18=20,19=15,26=3,38=1,57=2/1,3;
 2/9=110,12=2,17=6,18=5,40=1/2;
 3/5=4,6=6,7=111,11=2,16=1,25=1,30=1,71=1,74=-5/1,2,3;
 4//1;
 5/5=2,38=5/2;
 6/7=2,8=2,9=2,10=2,15=8,20=3,27=100,28=1,40=-1,79=1/1,2,7;
 7//1,2,3,16;
 1/14=-1,18=20,19=15,26=3/3(2);
 2/9=110/2;
 99//99;
 2/9=110/2;
 3/5=4,6=6,7=111,11=2,16=1,25=1,30=1,71=1,74=-5/1,2,3;
 4/5=5,16=3,69=1/1;
 5/5=2,38=5/2;
 7//1,2,3,16;
 1/14=-1,18=20,19=15,26=3/3(-5);
 2/9=110/2;
 6/7=2,8=2,9=2,10=2,15=8,19=2,20=3,27=100,28=1,40=-1,79=1/1,2,7;
 99/9=1/99;
 -------------------
 Title Card Required
 -------------------
 Symbolic Z-matrix:
 Charge =  0 Multiplicity = 1
 C                     0.02918  -0.05837   0. 
 C                     1.42434  -0.05837   0. 
 C                     2.12188   1.14939   0. 
 C                     1.42423   2.35789  -0.0012 
 C                     0.0294    2.35782  -0.00168 
 C                    -0.6682    1.14961  -0.00068 
 H                    -0.52058  -1.01068   0.00045 
 H                     3.22156   1.14947   0.00063 
 H                     1.97443   3.31004  -0.00126 
 H                    -0.52072   3.3101   -0.00263 
 C                     2.1939   -1.3923    0.00184 
 O                     3.42027  -1.44036   0.00191 
 H                     1.56542  -2.3078    0.00314 
 Cl                   -2.4282    1.1499   -0.00097 
 

 GradGradGradGradGradGradGradGradGradGradGradGradGradGradGradGradGradGrad
 Berny optimization.
 Initialization pass.
                           ----------------------------
                           !    Initial Parameters    !
                           ! (Angstroms and Degrees)  !
 --------------------------                            --------------------------
 ! Name  Definition              Value          Derivative Info.                !
 --------------------------------------------------------------------------------
 ! R1    R(1,2)                  1.3952         estimate D2E/DX2                !
 ! R2    R(1,6)                  1.3948         estimate D2E/DX2                !
 ! R3    R(1,7)                  1.0996         estimate D2E/DX2                !
 ! R4    R(2,3)                  1.3947         estimate D2E/DX2                !
 ! R5    R(2,11)                 1.54           estimate D2E/DX2                !
 ! R6    R(3,4)                  1.3954         estimate D2E/DX2                !
 ! R7    R(3,8)                  1.0997         estimate D2E/DX2                !
 ! R8    R(4,5)                  1.3948         estimate D2E/DX2                !
 ! R9    R(4,9)                  1.0997         estimate D2E/DX2                !
 ! R10   R(5,6)                  1.3951         estimate D2E/DX2                !
 ! R11   R(5,10)                 1.0998         estimate D2E/DX2                !
 ! R12   R(6,14)                 1.76           estimate D2E/DX2                !
 ! R13   R(11,12)                1.2273         estimate D2E/DX2                !
 ! R14   R(11,13)                1.1105         estimate D2E/DX2                !
 ! A1    A(2,1,6)              119.9985         estimate D2E/DX2                !
 ! A2    A(2,1,7)              119.9972         estimate D2E/DX2                !
 ! A3    A(6,1,7)              120.0043         estimate D2E/DX2                !
 ! A4    A(1,2,3)              120.0086         estimate D2E/DX2                !
 ! A5    A(1,2,11)             119.9808         estimate D2E/DX2                !
 ! A6    A(3,2,11)             120.0105         estimate D2E/DX2                !
 ! A7    A(2,3,4)              119.9942         estimate D2E/DX2                !
 ! A8    A(2,3,8)              120.0128         estimate D2E/DX2                !
 ! A9    A(4,3,8)              119.993          estimate D2E/DX2                !
 ! A10   A(3,4,5)              119.994          estimate D2E/DX2                !
 ! A11   A(3,4,9)              119.9811         estimate D2E/DX2                !
 ! A12   A(5,4,9)              120.0249         estimate D2E/DX2                !
 ! A13   A(4,5,6)              120.0047         estimate D2E/DX2                !
 ! A14   A(4,5,10)             120.0113         estimate D2E/DX2                !
 ! A15   A(6,5,10)             119.984          estimate D2E/DX2                !
 ! A16   A(1,6,5)              120.0            estimate D2E/DX2                !
 ! A17   A(1,6,14)             120.008          estimate D2E/DX2                !
 ! A18   A(5,6,14)             119.992          estimate D2E/DX2                !
 ! A19   A(2,11,12)            122.2249         estimate D2E/DX2                !
 ! A20   A(2,11,13)            115.5502         estimate D2E/DX2                !
 ! A21   A(12,11,13)           122.2249         estimate D2E/DX2                !
 ! D1    D(6,1,2,3)              0.0323         estimate D2E/DX2                !
 ! D2    D(6,1,2,11)           179.9532         estimate D2E/DX2                !
 ! D3    D(7,1,2,3)           -179.9729         estimate D2E/DX2                !
 ! D4    D(7,1,2,11)            -0.052          estimate D2E/DX2                !
 ! D5    D(2,1,6,5)              0.0149         estimate D2E/DX2                !
 ! D6    D(2,1,6,14)           179.9892         estimate D2E/DX2                !
 ! D7    D(7,1,6,5)           -179.9798         estimate D2E/DX2                !
 ! D8    D(7,1,6,14)            -0.0056         estimate D2E/DX2                !
 ! D9    D(1,2,3,4)             -0.0568         estimate D2E/DX2                !
 ! D10   D(1,2,3,8)            179.9619         estimate D2E/DX2                !
 ! D11   D(11,2,3,4)          -179.9777         estimate D2E/DX2                !
 ! D12   D(11,2,3,8)             0.041          estimate D2E/DX2                !
 ! D13   D(1,2,11,12)         -180.0            estimate D2E/DX2                !
 ! D14   D(1,2,11,13)           -0.0022         estimate D2E/DX2                !
 ! D15   D(3,2,11,12)           -0.0791         estimate D2E/DX2                !
 ! D16   D(3,2,11,13)          179.9187         estimate D2E/DX2                !
 ! D17   D(2,3,4,5)              0.0341         estimate D2E/DX2                !
 ! D18   D(2,3,4,9)           -179.9964         estimate D2E/DX2                !
 ! D19   D(8,3,4,5)           -179.9846         estimate D2E/DX2                !
 ! D20   D(8,3,4,9)             -0.0151         estimate D2E/DX2                !
 ! D21   D(3,4,5,6)              0.0131         estimate D2E/DX2                !
 ! D22   D(3,4,5,10)          -179.9995         estimate D2E/DX2                !
 ! D23   D(9,4,5,6)           -179.9563         estimate D2E/DX2                !
 ! D24   D(9,4,5,10)             0.0311         estimate D2E/DX2                !
 ! D25   D(4,5,6,1)             -0.0376         estimate D2E/DX2                !
 ! D26   D(4,5,6,14)           179.9881         estimate D2E/DX2                !
 ! D27   D(10,5,6,1)           179.975          estimate D2E/DX2                !
 ! D28   D(10,5,6,14)            0.0007         estimate D2E/DX2                !
 --------------------------------------------------------------------------------
 Trust Radius=3.00D-01 FncErr=1.00D-07 GrdErr=1.00D-06
 Number of steps in this run=     73 maximum allowed number of steps=    100.
 GradGradGradGradGradGradGradGradGradGradGradGradGradGradGradGradGradGrad

                          Input orientation:                          
 ---------------------------------------------------------------------
 Center     Atomic      Atomic             Coordinates (Angstroms)
 Number     Number       Type             X           Y           Z
 ---------------------------------------------------------------------
      1          6           0        0.029183   -0.058366    0.000000
      2          6           0        1.424343   -0.058366    0.000000
      3          6           0        2.121881    1.149385    0.000000
      4          6           0        1.424227    2.357894   -0.001199
      5          6           0        0.029402    2.357816   -0.001678
      6          6           0       -0.668199    1.149610   -0.000682
      7          1           0       -0.520576   -1.010683    0.000450
      8          1           0        3.221561    1.149465    0.000634
      9          1           0        1.974427    3.310037   -0.001258
     10          1           0       -0.520720    3.310097   -0.002631
     11          6           0        2.193895   -1.392302    0.001842
     12          8           0        3.420271   -1.440361    0.001908
     13          1           0        1.565419   -2.307797    0.003144
     14         17           0       -2.428199    1.149903   -0.000970
 ---------------------------------------------------------------------
                    Distance matrix (angstroms):
                    1          2          3          4          5
     1  C    0.000000
     2  C    1.395160   0.000000
     3  C    2.416205   1.394712   0.000000
     4  C    2.790065   2.416260   1.395427   0.000000
     5  C    2.416183   2.789946   2.416356   1.394825   0.000000
     6  C    1.394829   2.416183   2.790080   2.416236   1.395138
     7  H    1.099610   2.165553   3.412986   3.889675   3.413102
     8  H    3.413229   2.165375   1.099680   2.165806   3.413209
     9  H    3.889745   3.413024   2.165678   1.099680   2.165606
    10  H    3.413055   3.889707   3.413506   2.165528   1.099761
    11  C    2.542709   1.540000   2.542708   3.828364   4.329946
    12  O    3.661884   2.427683   2.896999   4.290798   5.091577
    13  H    2.723963   2.253853   3.501681   4.667830   4.911957
    14  Cl   2.738365   4.037573   4.550080   4.037379   2.738404
                    6          7          8          9         10
     6  C    0.000000
     7  H    2.165331   0.000000
     8  H    3.889760   4.320860   0.000000
     9  H    3.413344   4.989355   2.494678   0.000000
    10  H    2.165516   4.320781   4.321228   2.495147   0.000000
    11  C    3.827912   2.741166   2.741656   4.707459   5.429707
    12  O    4.839788   3.964202   2.597438   4.965557   6.172381
    13  H    4.116155   2.456398   3.833468   5.632706   5.992725
    14  Cl   1.760000   2.882214   5.649760   4.904008   2.881825
                   11         12         13         14
    11  C    0.000000
    12  O    1.227317   0.000000
    13  H    1.110457   2.047663   0.000000
    14  Cl   5.275090   6.396411   5.282490   0.000000
 Stoichiometry    C7H5ClO
 Framework group  C1[X(C7H5ClO)]
 Deg. of freedom    36
 Full point group                 C1      NOp   1
 Largest Abelian subgroup         C1      NOp   1
 Largest concise Abelian subgroup C1      NOp   1
                         Standard orientation:                         
 ---------------------------------------------------------------------
 Center     Atomic      Atomic             Coordinates (Angstroms)
 Number     Number       Type             X           Y           Z
 ---------------------------------------------------------------------
      1          6           0       -0.068910   -0.796587   -0.000267
      2          6           0        1.192025   -0.199500   -0.000537
      3          6           0        1.305574    1.190582    0.000203
      4          6           0        0.157833    1.984249    0.000015
      5          6           0       -1.102767    1.387236   -0.000194
      6          6           0       -1.216177   -0.003285    0.000062
      7          1           0       -0.158215   -1.892564   -0.000400
      8          1           0        2.299423    1.661285    0.000624
      9          1           0        0.247611    3.080259    0.000539
     10          1           0       -2.007511    2.012465   -0.000350
     11          6           0        2.458427   -1.075757    0.000189
     12          8           0        3.587384   -0.594340   -0.000017
     13          1           0        2.282220   -2.172145    0.000950
     14         17           0       -2.806978   -0.756248    0.000115
 ---------------------------------------------------------------------
 Rotational constants (GHZ):      3.1663252      0.7912706      0.6330662
 Standard basis: 6-311+G(d,p) (5D, 7F)
 There are   245 symmetry adapted cartesian basis functions of A   symmetry.
 There are   236 symmetry adapted basis functions of A   symmetry.
   236 basis functions,   381 primitive gaussians,   245 cartesian basis functions
    36 alpha electrons       36 beta electrons
       nuclear repulsion energy       449.7358882643 Hartrees.
 NAtoms=   14 NActive=   14 NUniq=   14 SFac= 1.00D+00 NAtFMM=   60 NAOKFM=F Big=F
 Integral buffers will be    131072 words long.
 Raffenetti 2 integral format.
 Two-electron integral symmetry is turned on.
 One-electron integrals computed using PRISM.
 NBasis=   236 RedAO= T EigKep=  2.59D-06  NBF=   236
 NBsUse=   236 1.00D-06 EigRej= -1.00D+00 NBFU=   236
 ExpMin= 4.38D-02 ExpMax= 1.06D+05 ExpMxC= 3.62D+03 IAcc=2 IRadAn=         4 AccDes= 0.00D+00
 Harris functional with IExCor=  402 and IRadAn=       4 diagonalized for initial guess.
 HarFok:  IExCor=  402 AccDes= 0.00D+00 IRadAn=         4 IDoV= 1 UseB2=F ITyADJ=14
 ICtDFT=  3500011 ScaDFX=  1.000000  1.000000  1.000000  1.000000
 FoFCou: FMM=F IPFlag=           0 FMFlag=      100000 FMFlg1=           0
         NFxFlg=           0 DoJE=T BraDBF=F KetDBF=T FulRan=T
         wScrn=  0.000000 ICntrl=     500 IOpCl=  0 I1Cent=   200000004 NGrid=           0
         NMat0=    1 NMatS0=      1 NMatT0=    0 NMatD0=    1 NMtDS0=    0 NMtDT0=    0
 Petite list used in FoFCou.
 Keep R1 ints in memory in canonical form, NReq=398711246.
 Requested convergence on RMS density matrix=1.00D-08 within 128 cycles.
 Requested convergence on MAX density matrix=1.00D-06.
 Requested convergence on             energy=1.00D-06.
 No special actions if energy rises.
 SCF Done:  E(RB3LYP) =  -805.287197962     A.U. after   15 cycles
            NFock= 15  Conv=0.62D-08     -V/T= 2.0035

 **********************************************************************

            Population analysis using the SCF density.

 **********************************************************************

 Orbital symmetries:
       Occupied  (A) (A) (A) (A) (A) (A) (A) (A) (A) (A) (A) (A)
                 (A) (A) (A) (A) (A) (A) (A) (A) (A) (A) (A) (A)
                 (A) (A) (A) (A) (A) (A) (A) (A) (A) (A) (A) (A)
       Virtual   (A) (A) (A) (A) (A) (A) (A) (A) (A) (A) (A) (A)
                 (A) (A) (A) (A) (A) (A) (A) (A) (A) (A) (A) (A)
                 (A) (A) (A) (A) (A) (A) (A) (A) (A) (A) (A) (A)
                 (A) (A) (A) (A) (A) (A) (A) (A) (A) (A) (A) (A)
                 (A) (A) (A) (A) (A) (A) (A) (A) (A) (A) (A) (A)
                 (A) (A) (A) (A) (A) (A) (A) (A) (A) (A) (A) (A)
                 (A) (A) (A) (A) (A) (A) (A) (A) (A) (A) (A) (A)
                 (A) (A) (A) (A) (A) (A) (A) (A) (A) (A) (A) (A)
                 (A) (A) (A) (A) (A) (A) (A) (A) (A) (A) (A) (A)
                 (A) (A) (A) (A) (A) (A) (A) (A) (A) (A) (A) (A)
                 (A) (A) (A) (A) (A) (A) (A) (A) (A) (A) (A) (A)
                 (A) (A) (A) (A) (A) (A) (A) (A) (A) (A) (A) (A)
                 (A) (A) (A) (A) (A) (A) (A) (A) (A) (A) (A) (A)
                 (A) (A) (A) (A) (A) (A) (A) (A) (A) (A) (A) (A)
                 (A) (A) (A) (A) (A) (A) (A) (A) (A) (A) (A) (A)
                 (A) (A) (A) (A) (A) (A) (A) (A) (A) (A) (A) (A)
                 (A) (A) (A) (A) (A) (A) (A) (A)
 The electronic state is 1-A.
 Alpha  occ. eigenvalues -- -101.57025 -19.14163 -10.28625 -10.26248 -10.21718
 Alpha  occ. eigenvalues --  -10.21635 -10.21497 -10.20997 -10.20626  -9.48465
 Alpha  occ. eigenvalues --   -7.24935  -7.23944  -7.23911  -1.05990  -0.91501
 Alpha  occ. eigenvalues --   -0.86140  -0.79232  -0.76024  -0.67228  -0.63774
 Alpha  occ. eigenvalues --   -0.58923  -0.54284  -0.50946  -0.48656  -0.46430
 Alpha  occ. eigenvalues --   -0.45486  -0.45181  -0.43079  -0.40294  -0.39422
 Alpha  occ. eigenvalues --   -0.38552  -0.35237  -0.33422  -0.29190  -0.28161
 Alpha  occ. eigenvalues --   -0.27167
 Alpha virt. eigenvalues --   -0.08985  -0.04585  -0.00883  -0.00262   0.00224
 Alpha virt. eigenvalues --    0.00849   0.02375   0.03640   0.04066   0.04074
 Alpha virt. eigenvalues --    0.05047   0.07094   0.07217   0.07421   0.07650
 Alpha virt. eigenvalues --    0.09567   0.10764   0.11364   0.11666   0.11721
 Alpha virt. eigenvalues --    0.12115   0.12889   0.13282   0.14314   0.14906
 Alpha virt. eigenvalues --    0.15782   0.16467   0.17403   0.17606   0.18000
 Alpha virt. eigenvalues --    0.18582   0.19551   0.19803   0.20113   0.21088
 Alpha virt. eigenvalues --    0.22053   0.22511   0.23597   0.25144   0.25529
 Alpha virt. eigenvalues --    0.25770   0.26540   0.26678   0.27184   0.29058
 Alpha virt. eigenvalues --    0.30412   0.30910   0.31157   0.32574   0.33274
 Alpha virt. eigenvalues --    0.39218   0.41244   0.42906   0.44320   0.45108
 Alpha virt. eigenvalues --    0.46042   0.47736   0.50326   0.51533   0.51977
 Alpha virt. eigenvalues --    0.52769   0.52862   0.54846   0.56062   0.58087
 Alpha virt. eigenvalues --    0.58874   0.60465   0.61771   0.63238   0.64152
 Alpha virt. eigenvalues --    0.65427   0.66570   0.66595   0.69169   0.70385
 Alpha virt. eigenvalues --    0.71688   0.76789   0.80156   0.81411   0.81820
 Alpha virt. eigenvalues --    0.83029   0.84113   0.84399   0.84969   0.85657
 Alpha virt. eigenvalues --    0.87024   0.87353   0.92793   0.93477   0.94807
 Alpha virt. eigenvalues --    0.95935   0.97200   0.97614   1.02085   1.03084
 Alpha virt. eigenvalues --    1.03292   1.06695   1.09965   1.10452   1.15764
 Alpha virt. eigenvalues --    1.18828   1.19721   1.22622   1.23303   1.27270
 Alpha virt. eigenvalues --    1.28564   1.35958   1.44092   1.47607   1.48154
 Alpha virt. eigenvalues --    1.49283   1.50041   1.53293   1.53722   1.58639
 Alpha virt. eigenvalues --    1.59367   1.64104   1.65459   1.67210   1.67599
 Alpha virt. eigenvalues --    1.71424   1.72525   1.77709   1.77740   1.83276
 Alpha virt. eigenvalues --    1.88327   1.88955   1.89899   1.91859   1.93824
 Alpha virt. eigenvalues --    1.95896   1.97217   1.99321   2.02216   2.03971
 Alpha virt. eigenvalues --    2.13113   2.14084   2.19922   2.26224   2.27919
 Alpha virt. eigenvalues --    2.31445   2.32848   2.35536   2.39003   2.41488
 Alpha virt. eigenvalues --    2.48918   2.52937   2.59612   2.61359   2.62358
 Alpha virt. eigenvalues --    2.65166   2.65663   2.67840   2.71700   2.72550
 Alpha virt. eigenvalues --    2.73938   2.76045   2.76561   2.78844   2.80225
 Alpha virt. eigenvalues --    2.84068   2.84115   2.85610   2.90593   2.95056
 Alpha virt. eigenvalues --    3.05012   3.09244   3.14438   3.17916   3.31181
 Alpha virt. eigenvalues --    3.31921   3.33327   3.42720   3.45850   3.48473
 Alpha virt. eigenvalues --    3.57633   3.60512   3.75934   3.89993   3.96092
 Alpha virt. eigenvalues --    4.07616   4.09941   4.26079   4.80946   4.99810
 Alpha virt. eigenvalues --    5.13254   5.69048   9.76330  23.48469  23.79727
 Alpha virt. eigenvalues --   23.87638  23.90792  24.02263  24.04332  24.13593
 Alpha virt. eigenvalues --   25.81355  26.10923  26.59167  49.94153 215.75360
          Condensed to atoms (all electrons):
               1          2          3          4          5          6
     1  C   17.807852  -0.925475  -1.307549  -1.363673  -5.646283  -3.428122
     2  C   -0.925475   9.326777   0.735230  -0.181422  -0.917679  -0.273864
     3  C   -1.307549   0.735230   8.749331  -1.202796   0.292230  -1.097261
     4  C   -1.363673  -0.181422  -1.202796   8.121285   0.554829  -0.016569
     5  C   -5.646283  -0.917679   0.292230   0.554829  13.422641  -1.732429
     6  C   -3.428122  -0.273864  -1.097261  -0.016569  -1.732429  13.599909
     7  H    0.137966  -0.015954  -0.005684  -0.003779   0.067116   0.143009
     8  H    0.005869   0.004638   0.374896  -0.050392  -0.007441   0.007715
     9  H   -0.046150   0.023034  -0.002275   0.391670  -0.020280  -0.005869
    10  H    0.008050   0.024987  -0.021822  -0.037343   0.341870   0.031027
    11  C    1.484473  -2.082557  -0.296147  -0.266665   0.569467  -1.284125
    12  O   -0.008031  -0.101660  -0.181673   0.093496  -0.004980   0.048218
    13  H    0.111817  -0.205144  -0.087370   0.021768  -0.010070   0.042648
    14  Cl   0.263140  -0.014118   0.053086   0.239170  -0.211982  -0.907509
               7          8          9         10         11         12
     1  C    0.137966   0.005869  -0.046150   0.008050   1.484473  -0.008031
     2  C   -0.015954   0.004638   0.023034   0.024987  -2.082557  -0.101660
     3  C   -0.005684   0.374896  -0.002275  -0.021822  -0.296147  -0.181673
     4  C   -0.003779  -0.050392   0.391670  -0.037343  -0.266665   0.093496
     5  C    0.067116  -0.007441  -0.020280   0.341870   0.569467  -0.004980
     6  C    0.143009   0.007715  -0.005869   0.031027  -1.284125   0.048218
     7  H    0.511976  -0.000154   0.000060  -0.000287   0.019084   0.000751
     8  H   -0.000154   0.491747  -0.006812  -0.000169   0.014559   0.005145
     9  H    0.000060  -0.006812   0.525791  -0.007700   0.005640   0.000249
    10  H   -0.000287  -0.000169  -0.007700   0.506642   0.000691   0.000003
    11  C    0.019084   0.014559   0.005640   0.000691   7.283030   0.450243
    12  O    0.000751   0.005145   0.000249   0.000003   0.450243   7.990400
    13  H    0.003677   0.000140   0.000019  -0.000001   0.430916  -0.048007
    14  Cl  -0.007937   0.000509   0.000718  -0.002731  -0.091058  -0.000339
              13         14
     1  C    0.111817   0.263140
     2  C   -0.205144  -0.014118
     3  C   -0.087370   0.053086
     4  C    0.021768   0.239170
     5  C   -0.010070  -0.211982
     6  C    0.042648  -0.907509
     7  H    0.003677  -0.007937
     8  H    0.000140   0.000509
     9  H    0.000019   0.000718
    10  H   -0.000001  -0.002731
    11  C    0.430916  -0.091058
    12  O   -0.048007  -0.000339
    13  H    0.621893   0.000380
    14  Cl   0.000380  17.306991
 Mulliken charges:
               1
     1  C   -1.093886
     2  C    0.603206
     3  C   -0.002196
     4  C   -0.299579
     5  C   -0.697008
     6  C    0.873222
     7  H    0.150156
     8  H    0.159749
     9  H    0.141905
    10  H    0.156784
    11  C   -0.237551
    12  O   -0.243815
    13  H    0.117335
    14  Cl   0.371679
 Sum of Mulliken charges =   0.00000
 Mulliken charges with hydrogens summed into heavy atoms:
               1
     1  C   -0.943730
     2  C    0.603206
     3  C    0.157553
     4  C   -0.157674
     5  C   -0.540224
     6  C    0.873222
    11  C   -0.120216
    12  O   -0.243815
    14  Cl   0.371679
 Electronic spatial extent (au):  <R**2>=           1619.0724
 Charge=              0.0000 electrons
 Dipole moment (field-independent basis, Debye):
    X=             -1.7025    Y=              0.6835    Z=              0.0009  Tot=              1.8346
 Quadrupole moment (field-independent basis, Debye-Ang):
   XX=            -74.0701   YY=            -50.3894   ZZ=            -61.4179
   XY=             -1.2906   XZ=              0.0033   YZ=              0.0014
 Traceless Quadrupole moment (field-independent basis, Debye-Ang):
   XX=            -12.1110   YY=             11.5697   ZZ=              0.5413
   XY=             -1.2906   XZ=              0.0033   YZ=              0.0014
 Octapole moment (field-independent basis, Debye-Ang**2):
  XXX=            -62.4188  YYY=              1.8377  ZZZ=              0.0022  XYY=              4.1249
  XXY=              9.0317  XXZ=              0.0044  XZZ=              1.5427  YZZ=             -4.3188
  YYZ=              0.0057  XYZ=              0.0027
 Hexadecapole moment (field-independent basis, Debye-Ang**3):
 XXXX=          -1802.0575 YYYY=           -449.9996 ZZZZ=            -69.6038 XXXY=             42.1499
 XXXZ=              0.0134 YYYX=             -8.2254 YYYZ=              0.0132 ZZZX=              0.0013
 ZZZY=              0.0005 XXYY=           -318.6583 XXZZ=           -270.3473 YYZZ=           -103.7991
 XXYZ=              0.0028 YYXZ=              0.0116 ZZXY=             -1.1004
 N-N= 4.497358882643D+02 E-N=-2.796476628795D+03  KE= 8.025071446221D+02
 There are a total of      114324 grid points.
 ElSum from          density=       72.0001060008
 ElSum from atomic densities=       72.0002257394

 Hirshfeld populations at iteration   1 (CX, CA, CB, DipXYZ):
               1          2          3          4          5          6
     1  C    0.000000   3.019433   3.019433   0.001750  -0.053011  -0.000011
     2  C    0.000000   3.006794   3.006794   0.046662  -0.035062  -0.000145
     3  C    0.000000   3.014215   3.014215   0.051988   0.028468   0.000087
     4  C    0.000000   3.016260   3.016260   0.002973   0.070115  -0.000028
     5  C    0.000000   3.016589   3.016589  -0.042925   0.044529  -0.000055
     6  C    0.000001   2.982275   2.982275  -0.086175  -0.039728   0.000061
     7  H    0.000002   0.471685   0.471685  -0.006841  -0.157684  -0.000028
     8  H    0.000001   0.470770   0.470770   0.129291   0.092177   0.000080
     9  H    0.000001   0.470066   0.470066   0.015101   0.165099   0.000090
    10  H    0.000003   0.469704   0.469704  -0.124662   0.107125  -0.000034
    11  C    0.000000   2.928380   2.928380  -0.025288  -0.022544   0.000025
    12  O    0.000008   4.124507   4.124507  -0.111658  -0.015961   0.000010
    13  H    0.000002   0.473710   0.473710  -0.015460  -0.139756   0.000098
    14  Cl   0.000010   8.535663   8.535663  -0.004285   0.000375  -0.000021
       Tot   0.000030  36.000053  36.000053  -0.169529   0.044141   0.000131

 Dip from Atomic Chgs             -0.500030   0.225037   0.000223
         Total Dipole             -0.669559   0.269178   0.000354

 Hirshfeld charges, spin densities, dipoles, and CM5 charges using IRadAn=      4:
              Q-H        S-H        Dx         Dy         Dz        Q-CM5   
     1  C   -0.038867   0.000000   0.001750  -0.053011  -0.000011  -0.086609
     2  C   -0.013589   0.000000   0.046662  -0.035062  -0.000145  -0.021354
     3  C   -0.028429   0.000000   0.051988   0.028468   0.000087  -0.078278
     4  C   -0.032520   0.000000   0.002973   0.070115  -0.000028  -0.085877
     5  C   -0.033179   0.000000  -0.042925   0.044529  -0.000055  -0.083442
     6  C    0.035449   0.000000  -0.086175  -0.039728   0.000061   0.028743
     7  H    0.056630   0.000000  -0.006841  -0.157684  -0.000028   0.110170
     8  H    0.058460   0.000000   0.129291   0.092177   0.000080   0.115845
     9  H    0.059868   0.000000   0.015101   0.165099   0.000090   0.113549
    10  H    0.060592   0.000000  -0.124662   0.107125  -0.000034   0.113211
    11  C    0.143240   0.000000  -0.025288  -0.022544   0.000025   0.131203
    12  O   -0.249015   0.000000  -0.111658  -0.015961   0.000010  -0.300827
    13  H    0.052579   0.000000  -0.015460  -0.139756   0.000098   0.113010
    14  Cl  -0.071326   0.000000  -0.004285   0.000375  -0.000021  -0.069449
       Tot  -0.000106   0.000000  -0.169529   0.044141   0.000131  -0.000106
 Hirshfeld charges with hydrogens summed into heavy atoms:
              Q-H       Q-CM5   
     1  C    0.017763   0.023561
     2  C   -0.013589  -0.021354
     3  C    0.030031   0.037567
     4  C    0.027348   0.027673
     5  C    0.027414   0.029769
     6  C    0.035449   0.028743
    11  C    0.195819   0.244213
    12  O   -0.249015  -0.300827
    14  Cl  -0.071326  -0.069449
 
 EQQ= 0.000000000000E+00 EQD= 0.000000000000E+00 EDD= 0.622587890080E-02
 EQQ+QD+DD= 0.622587890080E-02
 
          MBS Condensed to atoms (all electrons):
               1          2          3          4          5          6
     1  C    4.831224   0.494884  -0.031773  -0.010932  -0.032350   0.505852
     2  C    0.494884   4.849788   0.495790  -0.030355  -0.011232  -0.027292
     3  C   -0.031773   0.495790   4.815202   0.506827  -0.030697  -0.011722
     4  C   -0.010932  -0.030355   0.506827   4.812494   0.500614  -0.028543
     5  C   -0.032350  -0.011232  -0.030697   0.500614   4.815634   0.503290
     6  C    0.505852  -0.027292  -0.011722  -0.028543   0.503290   4.718196
     7  H    0.382765  -0.024933   0.001461   0.000055   0.001357  -0.024780
     8  H    0.001483  -0.025763   0.383145  -0.024138   0.001420   0.000063
     9  H    0.000034   0.001462  -0.025080   0.387839  -0.024918   0.001369
    10  H    0.001382   0.000065   0.001451  -0.023468   0.384825  -0.025030
    11  C   -0.024255   0.372269  -0.023632   0.000814   0.000003   0.000719
    12  O    0.000278  -0.026445  -0.001900   0.000005   0.000000  -0.000001
    13  H   -0.000940  -0.040198   0.001027  -0.000018  -0.000001  -0.000035
    14  Cl  -0.028806   0.000640   0.000008   0.000646  -0.028656   0.264085
               7          8          9         10         11         12
     1  C    0.382765   0.001483   0.000034   0.001382  -0.024255   0.000278
     2  C   -0.024933  -0.025763   0.001462   0.000065   0.372269  -0.026445
     3  C    0.001461   0.383145  -0.025080   0.001451  -0.023632  -0.001900
     4  C    0.000055  -0.024138   0.387839  -0.023468   0.000814   0.000005
     5  C    0.001357   0.001420  -0.024918   0.384825   0.000003   0.000000
     6  C   -0.024780   0.000063   0.001369  -0.025030   0.000719  -0.000001
     7  H    0.545537  -0.000035   0.000002  -0.000040  -0.003827   0.000017
     8  H   -0.000035   0.533846  -0.003535  -0.000034  -0.003705   0.002711
     9  H    0.000002  -0.003535   0.548369  -0.003790  -0.000016   0.000000
    10  H   -0.000040  -0.000034  -0.003790   0.540476   0.000001   0.000000
    11  C   -0.003827  -0.003705  -0.000016   0.000001   4.617501   0.461590
    12  O    0.000017   0.002711   0.000000   0.000000   0.461590   7.986867
    13  H    0.002452   0.000131   0.000000   0.000000   0.353035  -0.023950
    14  Cl  -0.001843   0.000000  -0.000012  -0.001864  -0.000003   0.000000
              13         14
     1  C   -0.000940  -0.028806
     2  C   -0.040198   0.000640
     3  C    0.001027   0.000008
     4  C   -0.000018   0.000646
     5  C   -0.000001  -0.028656
     6  C   -0.000035   0.264085
     7  H    0.002452  -0.001843
     8  H    0.000131   0.000000
     9  H    0.000000  -0.000012
    10  H    0.000000  -0.001864
    11  C    0.353035  -0.000003
    12  O   -0.023950   0.000000
    13  H    0.614085   0.000001
    14  Cl   0.000001  16.996148
 MBS Mulliken charges:
               1
     1  C   -0.088844
     2  C   -0.028680
     3  C   -0.080106
     4  C   -0.091840
     5  C   -0.079288
     6  C    0.123829
     7  H    0.121811
     8  H    0.134411
     9  H    0.118274
    10  H    0.126028
    11  C    0.249507
    12  O   -0.399169
    13  H    0.094411
    14  Cl  -0.200344
 Sum of MBS Mulliken charges =   0.00000
 MBS Mulliken charges with hydrogens summed into heavy atoms:
               1
     1  C    0.032967
     2  C   -0.028680
     3  C    0.054304
     4  C    0.026435
     5  C    0.046739
     6  C    0.123829
    11  C    0.343918
    12  O   -0.399169
    14  Cl  -0.200344
 Breneman (CHELPG) radii used.
 Generate Potential Derived Charges using the Breneman model, NDens= 1.
 Grid spacing= 0.300 Box extension= 2.800
 NStep X,Y,Z=   41     38     20   Total possible points=       31160
 Number of Points to Fit=   10301

 **********************************************************************

            Electrostatic Properties Using The SCF Density

 **********************************************************************

       Atomic Center    1 is at  -0.068910 -0.796587 -0.000267
       Atomic Center    2 is at   1.192025 -0.199500 -0.000537
       Atomic Center    3 is at   1.305574  1.190582  0.000203
       Atomic Center    4 is at   0.157833  1.984249  0.000015
       Atomic Center    5 is at  -1.102767  1.387236 -0.000194
       Atomic Center    6 is at  -1.216177 -0.003285  0.000062
       Atomic Center    7 is at  -0.158215 -1.892564 -0.000400
       Atomic Center    8 is at   2.299423  1.661285  0.000624
       Atomic Center    9 is at   0.247611  3.080259  0.000539
       Atomic Center   10 is at  -2.007511  2.012465 -0.000350
       Atomic Center   11 is at   2.458427 -1.075757  0.000189
       Atomic Center   12 is at   3.587384 -0.594340 -0.000017
       Atomic Center   13 is at   2.282220 -2.172145  0.000950
       Atomic Center   14 is at  -2.806978 -0.756248  0.000115
   10301 points will be used for fitting atomic charges
 Fitting point charges to electrostatic potential
 Charges from ESP fit, RMS=   0.00461 RRMS=   0.31204:
 ESP charges:
               1
     1  C   -0.149430
     2  C    0.014635
     3  C   -0.052847
     4  C   -0.107099
     5  C   -0.072632
     6  C    0.132780
     7  H    0.100984
     8  H    0.101038
     9  H    0.107737
    10  H    0.099918
    11  C    0.378857
    12  O   -0.445859
    13  H    0.026933
    14  Cl  -0.135015
 Sum of ESP charges =   0.00000
 ESP charges with hydrogens summed into heavy atoms:
               1
     1  C   -0.048446
     2  C    0.014635
     3  C    0.048190
     4  C    0.000639
     5  C    0.027286
     6  C    0.132780
    11  C    0.405790
    12  O   -0.445859
    14  Cl  -0.135015
 Charge=   0.00000 Dipole=    -1.5597     0.7214     0.0009 Tot=     1.7185
 -----------------------------------------------------------------

              Electrostatic Properties (Atomic Units)

 -----------------------------------------------------------------
    Center     Electric         -------- Electric Field --------
               Potential          X             Y             Z
 -----------------------------------------------------------------
    1 Atom    -14.734429
    2 Atom    -14.734971
    3 Atom    -14.745201
    4 Atom    -14.741143
    5 Atom    -14.736644
    6 Atom    -14.687560
    7 Atom     -1.068126
    8 Atom     -1.085229
    9 Atom     -1.078672
   10 Atom     -1.073559
   11 Atom    -14.666696
   12 Atom    -22.359664
   13 Atom     -1.072695
   14 Atom    -64.380552
 -----------------------------------------------------------------
 ******************************Gaussian NBO Version 3.1******************************
             N A T U R A L   A T O M I C   O R B I T A L   A N D
          N A T U R A L   B O N D   O R B I T A L   A N A L Y S I S
 ******************************Gaussian NBO Version 3.1******************************
       /RESON  / : Allow strongly delocalized NBO set

 Analyzing the SCF density

 Job title: Title Card Required                                             

 Storage needed:    168242 in NPA ( 536869820 available)


 NATURAL POPULATIONS:  Natural atomic orbital occupancies 
                                                          
   NAO  Atom  No  lang   Type(AO)    Occupancy      Energy
 ----------------------------------------------------------
     1    C    1  S      Cor( 1S)     1.99888     -10.06458
     2    C    1  S      Val( 2S)     0.94281      -0.18766
     3    C    1  S      Ryd( 3S)     0.00168       0.83984
     4    C    1  S      Ryd( 4S)     0.00023       1.00226
     5    C    1  S      Ryd( 5S)     0.00001      22.77495
     6    C    1  px     Val( 2p)     1.06983      -0.08837
     7    C    1  px     Ryd( 4p)     0.00465       0.72467
     8    C    1  px     Ryd( 3p)     0.00025       0.46569
     9    C    1  px     Ryd( 5p)     0.00017       3.19595
    10    C    1  py     Val( 2p)     1.19075      -0.10650
    11    C    1  py     Ryd( 4p)     0.00608       0.98071
    12    C    1  py     Ryd( 3p)     0.00036       0.32667
    13    C    1  py     Ryd( 5p)     0.00007       3.21111
    14    C    1  pz     Val( 2p)     0.97701      -0.14188
    15    C    1  pz     Ryd( 4p)     0.00099       0.47220
    16    C    1  pz     Ryd( 3p)     0.00054       0.28015
    17    C    1  pz     Ryd( 5p)     0.00001       2.69996
    18    C    1  dxy    Ryd( 3d)     0.00076       2.55134
    19    C    1  dxz    Ryd( 3d)     0.00055       1.63917
    20    C    1  dyz    Ryd( 3d)     0.00043       1.57655
    21    C    1  dx2y2  Ryd( 3d)     0.00072       2.44373
    22    C    1  dz2    Ryd( 3d)     0.00042       2.01754

    23    C    2  S      Cor( 1S)     1.99892     -10.07506
    24    C    2  S      Val( 2S)     0.92734      -0.18417
    25    C    2  S      Ryd( 3S)     0.00158       0.73634
    26    C    2  S      Ryd( 4S)     0.00012       1.45481
    27    C    2  S      Ryd( 5S)     0.00001      22.39340
    28    C    2  px     Val( 2p)     1.07559      -0.09378
    29    C    2  px     Ryd( 4p)     0.00674       1.24762
    30    C    2  px     Ryd( 3p)     0.00025       0.68754
    31    C    2  px     Ryd( 5p)     0.00009       2.99080
    32    C    2  py     Val( 2p)     1.09768      -0.09477
    33    C    2  py     Ryd( 4p)     0.00447       1.16441
    34    C    2  py     Ryd( 3p)     0.00018       0.68828
    35    C    2  py     Ryd( 5p)     0.00011       2.99326
    36    C    2  pz     Val( 2p)     1.03071      -0.13721
    37    C    2  pz     Ryd( 3p)     0.00051       0.57684
    38    C    2  pz     Ryd( 4p)     0.00025       0.62244
    39    C    2  pz     Ryd( 5p)     0.00001       2.38681
    40    C    2  dxy    Ryd( 3d)     0.00086       2.47580
    41    C    2  dxz    Ryd( 3d)     0.00049       1.60004
    42    C    2  dyz    Ryd( 3d)     0.00047       1.62502
    43    C    2  dx2y2  Ryd( 3d)     0.00064       2.57466
    44    C    2  dz2    Ryd( 3d)     0.00039       2.02692

    45    C    3  S      Cor( 1S)     1.99904     -10.05778
    46    C    3  S      Val( 2S)     0.95084      -0.18420
    47    C    3  S      Ryd( 4S)     0.00154       0.77236
    48    C    3  S      Ryd( 3S)     0.00012       0.68244
    49    C    3  S      Ryd( 5S)     0.00001      23.12175
    50    C    3  px     Val( 2p)     1.16766      -0.08289
    51    C    3  px     Ryd( 4p)     0.00664       1.05373
    52    C    3  px     Ryd( 3p)     0.00039       0.37940
    53    C    3  px     Ryd( 5p)     0.00008       3.17061
    54    C    3  py     Val( 2p)     1.08090      -0.07022
    55    C    3  py     Ryd( 4p)     0.00478       0.78177
    56    C    3  py     Ryd( 3p)     0.00051       0.40761
    57    C    3  py     Ryd( 5p)     0.00017       3.14422
    58    C    3  pz     Val( 2p)     0.94796      -0.13007
    59    C    3  pz     Ryd( 4p)     0.00078       0.50033
    60    C    3  pz     Ryd( 3p)     0.00032       0.30700
    61    C    3  pz     Ryd( 5p)     0.00001       2.66539
    62    C    3  dxy    Ryd( 3d)     0.00074       2.50526
    63    C    3  dxz    Ryd( 3d)     0.00048       1.59407
    64    C    3  dyz    Ryd( 3d)     0.00044       1.64311
    65    C    3  dx2y2  Ryd( 3d)     0.00079       2.53254
    66    C    3  dz2    Ryd( 3d)     0.00040       2.04125

    67    C    4  S      Cor( 1S)     1.99914     -10.06547
    68    C    4  S      Val( 2S)     0.95754      -0.19628
    69    C    4  S      Ryd( 3S)     0.00153       0.80820
    70    C    4  S      Ryd( 4S)     0.00014       1.27850
    71    C    4  S      Ryd( 5S)     0.00000      22.42205
    72    C    4  px     Val( 2p)     1.05285      -0.07210
    73    C    4  px     Ryd( 4p)     0.00458       0.76480
    74    C    4  px     Ryd( 3p)     0.00039       0.42278
    75    C    4  px     Ryd( 5p)     0.00015       2.99718
    76    C    4  py     Val( 2p)     1.17608      -0.08740
    77    C    4  py     Ryd( 4p)     0.00694       1.04909
    78    C    4  py     Ryd( 3p)     0.00028       0.26107
    79    C    4  py     Ryd( 5p)     0.00007       3.15273
    80    C    4  pz     Val( 2p)     0.98631      -0.13611
    81    C    4  pz     Ryd( 4p)     0.00065       0.51113
    82    C    4  pz     Ryd( 3p)     0.00023       0.35187
    83    C    4  pz     Ryd( 5p)     0.00001       2.58255
    84    C    4  dxy    Ryd( 3d)     0.00066       2.55087
    85    C    4  dxz    Ryd( 3d)     0.00050       1.64746
    86    C    4  dyz    Ryd( 3d)     0.00044       1.57590
    87    C    4  dx2y2  Ryd( 3d)     0.00077       2.44497
    88    C    4  dz2    Ryd( 3d)     0.00040       2.00865

    89    C    5  S      Cor( 1S)     1.99896     -10.06538
    90    C    5  S      Val( 2S)     0.95513      -0.19559
    91    C    5  S      Ryd( 3S)     0.00190       0.74474
    92    C    5  S      Ryd( 4S)     0.00032       0.97465
    93    C    5  S      Ryd( 5S)     0.00001      22.83723
    94    C    5  px     Val( 2p)     1.15268      -0.09262
    95    C    5  px     Ryd( 4p)     0.00678       0.92316
    96    C    5  px     Ryd( 3p)     0.00039       0.35103
    97    C    5  px     Ryd( 5p)     0.00009       3.15255
    98    C    5  py     Val( 2p)     1.10409      -0.09552
    99    C    5  py     Ryd( 4p)     0.00472       0.78517
   100    C    5  py     Ryd( 3p)     0.00030       0.34155
   101    C    5  py     Ryd( 5p)     0.00013       3.12525
   102    C    5  pz     Val( 2p)     0.97213      -0.13921
   103    C    5  pz     Ryd( 4p)     0.00088       0.49237
   104    C    5  pz     Ryd( 3p)     0.00039       0.30493
   105    C    5  pz     Ryd( 5p)     0.00001       2.64694
   106    C    5  dxy    Ryd( 3d)     0.00072       2.44520
   107    C    5  dxz    Ryd( 3d)     0.00048       1.59400
   108    C    5  dyz    Ryd( 3d)     0.00050       1.61863
   109    C    5  dx2y2  Ryd( 3d)     0.00081       2.52709
   110    C    5  dz2    Ryd( 3d)     0.00041       2.00584

   111    C    6  S      Cor( 1S)     1.99856     -10.13310
   112    C    6  S      Val( 2S)     0.93484      -0.24056
   113    C    6  S      Ryd( 4S)     0.00074       0.84112
   114    C    6  S      Ryd( 3S)     0.00023       0.56831
   115    C    6  S      Ryd( 5S)     0.00001      23.19448
   116    C    6  px     Val( 2p)     0.95576      -0.16386
   117    C    6  px     Ryd( 4p)     0.00707       0.90608
   118    C    6  px     Ryd( 3p)     0.00023       0.82519
   119    C    6  px     Ryd( 5p)     0.00038       2.61834
   120    C    6  py     Val( 2p)     1.06467      -0.11916
   121    C    6  py     Ryd( 3p)     0.00696       0.80186
   122    C    6  py     Ryd( 4p)     0.00026       0.92575
   123    C    6  py     Ryd( 5p)     0.00015       2.67544
   124    C    6  pz     Val( 2p)     1.06830      -0.16706
   125    C    6  pz     Ryd( 3p)     0.00111       0.57970
   126    C    6  pz     Ryd( 4p)     0.00025       0.86765
   127    C    6  pz     Ryd( 5p)     0.00007       2.06146
   128    C    6  dxy    Ryd( 3d)     0.00161       2.27523
   129    C    6  dxz    Ryd( 3d)     0.00131       1.49045
   130    C    6  dyz    Ryd( 3d)     0.00074       1.58854
   131    C    6  dx2y2  Ryd( 3d)     0.00149       2.32599
   132    C    6  dz2    Ryd( 3d)     0.00082       1.94899

   133    H    7  S      Val( 1S)     0.77131       0.01011
   134    H    7  S      Ryd( 2S)     0.00115       1.14439
   135    H    7  S      Ryd( 3S)     0.00016       1.49916
   136    H    7  px     Ryd( 2p)     0.00015       1.96725
   137    H    7  py     Ryd( 2p)     0.00044       2.66069
   138    H    7  pz     Ryd( 2p)     0.00017       1.56786

   139    H    8  S      Val( 1S)     0.76269       0.03475
   140    H    8  S      Ryd( 2S)     0.00102       1.06496
   141    H    8  S      Ryd( 3S)     0.00016       1.64107
   142    H    8  px     Ryd( 2p)     0.00039       2.55637
   143    H    8  py     Ryd( 2p)     0.00018       2.12816
   144    H    8  pz     Ryd( 2p)     0.00015       1.58286

   145    H    9  S      Val( 1S)     0.77903       0.01763
   146    H    9  S      Ryd( 2S)     0.00059       0.61022
   147    H    9  S      Ryd( 3S)     0.00017       2.11097
   148    H    9  px     Ryd( 2p)     0.00011       1.94860
   149    H    9  py     Ryd( 2p)     0.00044       2.64410
   150    H    9  pz     Ryd( 2p)     0.00017       1.56465

   151    H   10  S      Val( 1S)     0.77015       0.01586
   152    H   10  S      Ryd( 2S)     0.00064       0.83878
   153    H   10  S      Ryd( 3S)     0.00017       1.85617
   154    H   10  px     Ryd( 2p)     0.00035       2.42631
   155    H   10  py     Ryd( 2p)     0.00022       2.15924
   156    H   10  pz     Ryd( 2p)     0.00017       1.56564

   157    C   11  S      Cor( 1S)     1.99944     -10.16948
   158    C   11  S      Val( 2S)     0.94285      -0.24311
   159    C   11  S      Ryd( 3S)     0.00924       0.75237
   160    C   11  S      Ryd( 4S)     0.00021       0.96911
   161    C   11  S      Ryd( 5S)     0.00003      22.64875
   162    C   11  px     Val( 2p)     0.82564      -0.04353
   163    C   11  px     Ryd( 4p)     0.01360       0.99420
   164    C   11  px     Ryd( 3p)     0.00063       0.57174
   165    C   11  px     Ryd( 5p)     0.00013       2.38959
   166    C   11  py     Val( 2p)     1.05396      -0.08723
   167    C   11  py     Ryd( 4p)     0.00323       1.17257
   168    C   11  py     Ryd( 3p)     0.00033       0.55940
   169    C   11  py     Ryd( 5p)     0.00011       2.23557
   170    C   11  pz     Val( 2p)     0.71312      -0.14522
   171    C   11  pz     Ryd( 4p)     0.00076       0.65774
   172    C   11  pz     Ryd( 3p)     0.00053       0.36169
   173    C   11  pz     Ryd( 5p)     0.00005       2.30023
   174    C   11  dxy    Ryd( 3d)     0.00266       2.40332
   175    C   11  dxz    Ryd( 3d)     0.00271       1.58111
   176    C   11  dyz    Ryd( 3d)     0.00053       1.50305
   177    C   11  dx2y2  Ryd( 3d)     0.00297       2.36896
   178    C   11  dz2    Ryd( 3d)     0.00051       1.92974

   179    O   12  S      Cor( 1S)     1.99978     -18.88979
   180    O   12  S      Val( 2S)     1.71482      -0.91846
   181    O   12  S      Ryd( 3S)     0.00290       0.92840
   182    O   12  S      Ryd( 4S)     0.00015       1.39835
   183    O   12  S      Ryd( 5S)     0.00000      49.64867
   184    O   12  px     Val( 2p)     1.61980      -0.31598
   185    O   12  px     Ryd( 3p)     0.00116       0.67178
   186    O   12  px     Ryd( 4p)     0.00012       1.10547
   187    O   12  px     Ryd( 5p)     0.00009       5.00363
   188    O   12  py     Val( 2p)     1.82631      -0.29248
   189    O   12  py     Ryd( 3p)     0.00367       0.64069
   190    O   12  py     Ryd( 4p)     0.00008       1.02470
   191    O   12  py     Ryd( 5p)     0.00002       4.91012
   192    O   12  pz     Val( 2p)     1.35131      -0.27105
   193    O   12  pz     Ryd( 3p)     0.00049       0.51944
   194    O   12  pz     Ryd( 4p)     0.00002       1.00819
   195    O   12  pz     Ryd( 5p)     0.00003       4.78560
   196    O   12  dxy    Ryd( 3d)     0.00133       3.33761
   197    O   12  dxz    Ryd( 3d)     0.00133       3.02720
   198    O   12  dyz    Ryd( 3d)     0.00024       2.85832
   199    O   12  dx2y2  Ryd( 3d)     0.00131       3.35983
   200    O   12  dz2    Ryd( 3d)     0.00039       3.05106

   201    H   13  S      Val( 1S)     0.87434      -0.04246
   202    H   13  S      Ryd( 2S)     0.00212       0.51518
   203    H   13  S      Ryd( 3S)     0.00013       2.11222
   204    H   13  px     Ryd( 2p)     0.00006       1.90161
   205    H   13  py     Ryd( 2p)     0.00075       2.60974
   206    H   13  pz     Ryd( 2p)     0.00005       1.54502

   207   Cl   14  S      Cor( 1S)     2.00000    -100.24142
   208   Cl   14  S      Cor( 2S)     1.99972     -10.48929
   209   Cl   14  S      Val( 3S)     1.83827      -1.01877
   210   Cl   14  S      Ryd( 4S)     0.00209       0.73464
   211   Cl   14  S      Ryd( 5S)     0.00008       1.17867
   212   Cl   14  S      Ryd( 6S)     0.00000      17.21305
   213   Cl   14  S      Ryd( 7S)     0.00000     207.73963
   214   Cl   14  px     Cor( 2p)     1.99993      -7.24099
   215   Cl   14  px     Val( 3p)     1.36754      -0.29497
   216   Cl   14  px     Ryd( 4p)     0.00346       0.34874
   217   Cl   14  px     Ryd( 5p)     0.00014       0.43845
   218   Cl   14  px     Ryd( 6p)     0.00002       5.87766
   219   Cl   14  px     Ryd( 7p)     0.00000      22.65227
   220   Cl   14  py     Cor( 2p)     1.99998      -7.23573
   221   Cl   14  py     Val( 3p)     1.83511      -0.32692
   222   Cl   14  py     Ryd( 4p)     0.00224       0.37455
   223   Cl   14  py     Ryd( 5p)     0.00013       0.48032
   224   Cl   14  py     Ryd( 6p)     0.00001       5.34908
   225   Cl   14  py     Ryd( 7p)     0.00000      22.78109
   226   Cl   14  pz     Cor( 2p)     1.99999      -7.23455
   227   Cl   14  pz     Val( 3p)     1.92747      -0.33447
   228   Cl   14  pz     Ryd( 4p)     0.00190       0.37490
   229   Cl   14  pz     Ryd( 5p)     0.00012       0.45647
   230   Cl   14  pz     Ryd( 6p)     0.00000       4.90484
   231   Cl   14  pz     Ryd( 7p)     0.00000      22.86653
   232   Cl   14  dxy    Ryd( 3d)     0.00306       1.16484
   233   Cl   14  dxz    Ryd( 3d)     0.00194       0.90832
   234   Cl   14  dyz    Ryd( 3d)     0.00046       0.86613
   235   Cl   14  dx2y2  Ryd( 3d)     0.00243       1.14770
   236   Cl   14  dz2    Ryd( 3d)     0.00141       0.96611

 WARNING:  1 low occupancy (<1.9990e) core orbital  found on  C    1
           1 low occupancy (<1.9990e) core orbital  found on  C    2
           1 low occupancy (<1.9990e) core orbital  found on  C    5
           1 low occupancy (<1.9990e) core orbital  found on  C    6

 WARNING:  Population inversion found on atom  C    1
           Population inversion found on atom  C    2
           Population inversion found on atom  C    3
           Population inversion found on atom  C    4
           Population inversion found on atom  C    5
           Population inversion found on atom  C    6
           Population inversion found on atom  C   11
           Population inversion found on atom  O   12


 Summary of Natural Population Analysis:                  
                                                          
                                       Natural Population 
                Natural  -----------------------------------------------
    Atom  No    Charge         Core      Valence    Rydberg      Total
 -----------------------------------------------------------------------
      C    1   -0.19721      1.99888     4.18040    0.01793     6.19721
      C    2   -0.14742      1.99892     4.13131    0.01718     6.14742
      C    3   -0.16460      1.99904     4.14737    0.01819     6.16460
      C    4   -0.18966      1.99914     4.17278    0.01774     6.18966
      C    5   -0.20183      1.99896     4.18403    0.01885     6.20183
      C    6   -0.04558      1.99856     4.02357    0.02344     6.04558
      H    7    0.22662      0.00000     0.77131    0.00207     0.77338
      H    8    0.23541      0.00000     0.76269    0.00190     0.76459
      H    9    0.21949      0.00000     0.77903    0.00148     0.78051
      H   10    0.22830      0.00000     0.77015    0.00155     0.77170
      C   11    0.42677      1.99944     3.53557    0.03822     5.57323
      O   12   -0.52535      1.99978     6.51224    0.01333     8.52535
      H   13    0.12255      0.00000     0.87434    0.00311     0.87745
     Cl   14    0.01251      9.99962     6.96838    0.01949    16.98749
 =======================================================================
   * Total *    0.00000     25.99234    45.81318    0.19448    72.00000

                                 Natural Population      
 --------------------------------------------------------
   Core                      25.99234 ( 99.9706% of  26)
   Valence                   45.81318 ( 99.5939% of  46)
   Natural Minimal Basis     71.80552 ( 99.7299% of  72)
   Natural Rydberg Basis      0.19448 (  0.2701% of  72)
 --------------------------------------------------------

    Atom  No          Natural Electron Configuration
 ----------------------------------------------------------------------------
      C    1      [core]2S( 0.94)2p( 3.24)4p( 0.01)
      C    2      [core]2S( 0.93)2p( 3.20)4p( 0.01)
      C    3      [core]2S( 0.95)2p( 3.20)4p( 0.01)
      C    4      [core]2S( 0.96)2p( 3.22)4p( 0.01)
      C    5      [core]2S( 0.96)2p( 3.23)4p( 0.01)
      C    6      [core]2S( 0.93)2p( 3.09)3p( 0.01)3d( 0.01)4p( 0.01)
      H    7            1S( 0.77)
      H    8            1S( 0.76)
      H    9            1S( 0.78)
      H   10            1S( 0.77)
      C   11      [core]2S( 0.94)2p( 2.59)3S( 0.01)3d( 0.01)4p( 0.02)
      O   12      [core]2S( 1.71)2p( 4.80)3p( 0.01)
      H   13            1S( 0.87)
     Cl   14      [core]3S( 1.84)3p( 5.13)3d( 0.01)4p( 0.01)


 NBO analysis skipped by request.
 Calling FoFJK, ICntrl=      2127 FMM=F ISym2X=0 I1Cent= 0 IOpClX= 0 NMat=1 NMatS=1 NMatT=0.
 ***** Axes restored to original set *****
 -------------------------------------------------------------------
 Center     Atomic                   Forces (Hartrees/Bohr)
 Number     Number              X              Y              Z
 -------------------------------------------------------------------
      1        6          -0.010246317   -0.010157024   -0.000009546
      2        6           0.011457409   -0.021011878    0.000139594
      3        6           0.012420544    0.008354461   -0.000060922
      4        6           0.006351974    0.000710766    0.000041049
      5        6          -0.008745668    0.011642350    0.000010186
      6        6           0.005956705   -0.001252842   -0.000058304
      7        1           0.004324673    0.008550508    0.000000387
      8        1          -0.010688004   -0.002388980   -0.000006354
      9        1          -0.006031500   -0.008806562   -0.000016305
     10        1           0.004488554   -0.009823369    0.000016104
     11        6           0.018026568    0.025681509   -0.000067487
     12        8          -0.032397419   -0.003239347    0.000010605
     13        1           0.002202276    0.001796053   -0.000005481
     14       17           0.002880203   -0.000055643    0.000006473
 -------------------------------------------------------------------
 Cartesian Forces:  Max     0.032397419 RMS     0.009509710

 GradGradGradGradGradGradGradGradGradGradGradGradGradGradGradGradGradGrad
 Berny optimization.
 FormGI is forming the generalized inverse of G from B-inverse, IUseBI=4.
 Internal  Forces:  Max     0.032246830 RMS     0.006194927
 Search for a local minimum.
 Step number   1 out of a maximum of   73
 All quantities printed in internal units (Hartrees-Bohrs-Radians)
 Mixed Optimization -- RFO/linear search
 Second derivative matrix not updated -- first step.
 ITU=  0
     Eigenvalues ---    0.00237   0.00237   0.01565   0.02152   0.02153
     Eigenvalues ---    0.02154   0.02155   0.02155   0.02155   0.02156
     Eigenvalues ---    0.02157   0.16000   0.16000   0.16000   0.16000
     Eigenvalues ---    0.16000   0.22000   0.22000   0.23479   0.23493
     Eigenvalues ---    0.25000   0.25000   0.28519   0.29539   0.32552
     Eigenvalues ---    0.33709   0.33718   0.33718   0.33725   0.42204
     Eigenvalues ---    0.42409   0.46412   0.46453   0.46466   0.46497
     Eigenvalues ---    0.92213
 RFO step:  Lambda=-5.71495411D-03 EMin= 2.36824136D-03
 Linear search not attempted -- first point.
 Iteration  1 RMS(Cart)=  0.02488529 RMS(Int)=  0.00018901
 Iteration  2 RMS(Cart)=  0.00023221 RMS(Int)=  0.00000503
 Iteration  3 RMS(Cart)=  0.00000007 RMS(Int)=  0.00000503
 Variable       Old X    -DE/DX   Delta X   Delta X   Delta X     New X
                                 (Linear)    (Quad)   (Total)
    R1        2.63647   0.00062   0.00000   0.00153   0.00153   2.63800
    R2        2.63584  -0.00465   0.00000  -0.00991  -0.00991   2.62594
    R3        2.07796  -0.00957   0.00000  -0.02790  -0.02790   2.05007
    R4        2.63562   0.00126   0.00000   0.00293   0.00292   2.63855
    R5        2.91018  -0.02708   0.00000  -0.09307  -0.09307   2.81710
    R6        2.63697  -0.00437   0.00000  -0.00927  -0.00928   2.62770
    R7        2.07809  -0.01069   0.00000  -0.03117  -0.03117   2.04692
    R8        2.63584   0.00072   0.00000   0.00132   0.00132   2.63716
    R9        2.07809  -0.01064   0.00000  -0.03104  -0.03104   2.04706
   R10        2.63643  -0.00263   0.00000  -0.00585  -0.00584   2.63059
   R11        2.07825  -0.01075   0.00000  -0.03136  -0.03136   2.04688
   R12        3.32592  -0.00288   0.00000  -0.00957  -0.00957   3.31635
   R13        2.31929  -0.03225   0.00000  -0.03475  -0.03475   2.28454
   R14        2.09846  -0.00273   0.00000  -0.00823  -0.00823   2.09023
    A1        2.09437  -0.00298   0.00000  -0.01235  -0.01234   2.08202
    A2        2.09435   0.00204   0.00000   0.00950   0.00950   2.10385
    A3        2.09447   0.00094   0.00000   0.00285   0.00284   2.09732
    A4        2.09455   0.00211   0.00000   0.00957   0.00956   2.10411
    A5        2.09406  -0.00316   0.00000  -0.01303  -0.01303   2.08103
    A6        2.09458   0.00105   0.00000   0.00346   0.00347   2.09804
    A7        2.09429  -0.00238   0.00000  -0.00942  -0.00943   2.08486
    A8        2.09462  -0.00129   0.00000  -0.01027  -0.01027   2.08435
    A9        2.09427   0.00367   0.00000   0.01969   0.01970   2.11397
   A10        2.09429   0.00178   0.00000   0.00800   0.00800   2.10229
   A11        2.09407  -0.00004   0.00000   0.00111   0.00111   2.09517
   A12        2.09483  -0.00173   0.00000  -0.00911  -0.00911   2.08572
   A13        2.09448  -0.00190   0.00000  -0.00890  -0.00889   2.08559
   A14        2.09459   0.00202   0.00000   0.01088   0.01088   2.10547
   A15        2.09411  -0.00012   0.00000  -0.00198  -0.00199   2.09213
   A16        2.09440   0.00337   0.00000   0.01309   0.01310   2.10750
   A17        2.09453  -0.00178   0.00000  -0.00689  -0.00690   2.08764
   A18        2.09426  -0.00160   0.00000  -0.00620  -0.00620   2.08805
   A19        2.13323   0.00641   0.00000   0.02840   0.02840   2.16163
   A20        2.01673  -0.00237   0.00000  -0.00915  -0.00915   2.00758
   A21        2.13323  -0.00404   0.00000  -0.01925  -0.01925   2.11397
    D1        0.00056  -0.00001   0.00000  -0.00050  -0.00050   0.00006
    D2        3.14078   0.00002   0.00000   0.00068   0.00068   3.14145
    D3       -3.14112  -0.00001   0.00000  -0.00049  -0.00049   3.14158
    D4       -0.00091   0.00002   0.00000   0.00069   0.00069  -0.00022
    D5        0.00026  -0.00001   0.00000  -0.00033  -0.00033  -0.00007
    D6        3.14140   0.00001   0.00000   0.00027   0.00027  -3.14151
    D7       -3.14124  -0.00001   0.00000  -0.00034  -0.00035  -3.14159
    D8       -0.00010   0.00001   0.00000   0.00026   0.00026   0.00016
    D9       -0.00099   0.00002   0.00000   0.00097   0.00097  -0.00002
   D10        3.14093   0.00001   0.00000   0.00061   0.00062   3.14154
   D11       -3.14120   0.00000   0.00000  -0.00020  -0.00021  -3.14141
   D12        0.00072  -0.00001   0.00000  -0.00056  -0.00056   0.00015
   D13        3.14159  -0.00001   0.00000   0.00014   0.00015  -3.14145
   D14       -0.00004  -0.00001   0.00000  -0.00025  -0.00024  -0.00028
   D15       -0.00138   0.00002   0.00000   0.00133   0.00133  -0.00006
   D16        3.14017   0.00002   0.00000   0.00094   0.00093   3.14111
   D17        0.00060  -0.00002   0.00000  -0.00061  -0.00060  -0.00001
   D18       -3.14153   0.00000   0.00000  -0.00016  -0.00016   3.14150
   D19       -3.14132  -0.00001   0.00000  -0.00025  -0.00025  -3.14157
   D20       -0.00026   0.00001   0.00000   0.00020   0.00020  -0.00006
   D21        0.00023  -0.00001   0.00000  -0.00024  -0.00023   0.00000
   D22       -3.14158   0.00000   0.00000   0.00008   0.00009  -3.14150
   D23       -3.14083  -0.00002   0.00000  -0.00069  -0.00068  -3.14151
   D24        0.00054  -0.00001   0.00000  -0.00037  -0.00036   0.00018
   D25       -0.00066   0.00002   0.00000   0.00070   0.00070   0.00005
   D26        3.14138   0.00000   0.00000   0.00010   0.00010   3.14148
   D27        3.14116   0.00001   0.00000   0.00038   0.00038   3.14154
   D28        0.00001  -0.00001   0.00000  -0.00022  -0.00022  -0.00021
         Item               Value     Threshold  Converged?
 Maximum Force            0.032247     0.000450     NO 
 RMS     Force            0.006195     0.000300     NO 
 Maximum Displacement     0.101767     0.001800     NO 
 RMS     Displacement     0.024948     0.001200     NO 
 Predicted change in Energy=-2.905898D-03
 GradGradGradGradGradGradGradGradGradGradGradGradGradGradGradGradGradGrad

                          Input orientation:                          
 ---------------------------------------------------------------------
 Center     Atomic      Atomic             Coordinates (Angstroms)
 Number     Number       Type             X           Y           Z
 ---------------------------------------------------------------------
      1          6           0        0.039488   -0.067999    0.000136
      2          6           0        1.435405   -0.056056    0.000485
      3          6           0        2.134935    1.152329   -0.000113
      4          6           0        1.429616    2.350687   -0.001090
      5          6           0        0.034092    2.350019   -0.001481
      6          6           0       -0.650708    1.138060   -0.000891
      7          1           0       -0.503778   -1.007019    0.000585
      8          1           0        3.218053    1.140196    0.000219
      9          1           0        1.962634    3.293732   -0.001472
     10          1           0       -0.518290    3.281748   -0.002329
     11          6           0        2.174563   -1.350650    0.001769
     12          8           0        3.380353   -1.437665    0.002300
     13          1           0        1.536190   -2.253945    0.002652
     14         17           0       -2.405638    1.132898   -0.001210
 ---------------------------------------------------------------------
                    Distance matrix (angstroms):
                    1          2          3          4          5
     1  C    0.000000
     2  C    1.395969   0.000000
     3  C    2.424892   1.396258   0.000000
     4  C    2.789713   2.406751   1.390517   0.000000
     5  C    2.418025   2.784400   2.418265   1.395524   0.000000
     6  C    1.389587   2.403703   2.785680   2.407947   1.392047
     7  H    1.084848   2.159806   3.409632   3.874558   3.399855
     8  H    3.400443   2.146823   1.083186   2.159582   3.406065
     9  H    3.872948   3.391025   2.148324   1.083256   2.147061
    10  H    3.395869   3.867541   3.402063   2.158984   1.083164
    11  C    2.490731   1.490747   2.503293   3.775559   4.275111
    12  O    3.610730   2.385722   2.873872   4.261103   5.054110
    13  H    2.649242   2.200199   3.458497   4.605866   4.842809
    14  Cl   2.724114   4.020850   4.540615   4.023951   2.726475
                    6          7          8          9         10
     6  C    0.000000
     7  H    2.150106   0.000000
     8  H    3.868761   4.296808   0.000000
     9  H    3.387695   4.957787   2.492748   0.000000
    10  H    2.147774   4.288792   4.306565   2.480953   0.000000
    11  C    3.765082   2.700295   2.700590   4.649215   5.358225
    12  O    4.783704   3.907932   2.582966   4.939237   6.121462
    13  H    4.035869   2.390878   3.787989   5.564044   5.904643
    14  Cl   1.754938   2.862922   5.623696   4.873500   2.860007
                   11         12         13         14
    11  C    0.000000
    12  O    1.208926   0.000000
    13  H    1.106102   2.016742   0.000000
    14  Cl   5.210208   6.331312   5.196992   0.000000
 Stoichiometry    C7H5ClO
 Framework group  C1[X(C7H5ClO)]
 Deg. of freedom    36
 Full point group                 C1      NOp   1
 Largest Abelian subgroup         C1      NOp   1
 Largest concise Abelian subgroup C1      NOp   1
                         Standard orientation:                         
 ---------------------------------------------------------------------
 Center     Atomic      Atomic             Coordinates (Angstroms)
 Number     Number       Type             X           Y           Z
 ---------------------------------------------------------------------
      1          6           0       -0.063396   -0.799895   -0.000135
      2          6           0        1.195411   -0.196460   -0.000155
      3          6           0        1.315764    1.194602   -0.000056
      4          6           0        0.168410    1.980170    0.000037
      5          6           0       -1.094826    1.387110    0.000023
      6          6           0       -1.200326   -0.000933   -0.000090
      7          1           0       -0.156622   -1.880730   -0.000226
      8          1           0        2.301580    1.643443   -0.000026
      9          1           0        0.250650    3.060300    0.000202
     10          1           0       -1.990514    1.996199    0.000008
     11          6           0        2.414258   -1.054795   -0.000020
     12          8           0        3.542934   -0.621674    0.000120
     13          1           0        2.219755   -2.143661    0.000374
     14         17           0       -2.787064   -0.750645    0.000063
 ---------------------------------------------------------------------
 Rotational constants (GHZ):      3.1811932      0.8065602      0.6434259
 Standard basis: 6-311+G(d,p) (5D, 7F)
 There are   245 symmetry adapted cartesian basis functions of A   symmetry.
 There are   236 symmetry adapted basis functions of A   symmetry.
   236 basis functions,   381 primitive gaussians,   245 cartesian basis functions
    36 alpha electrons       36 beta electrons
       nuclear repulsion energy       452.9029561125 Hartrees.
 NAtoms=   14 NActive=   14 NUniq=   14 SFac= 1.00D+00 NAtFMM=   60 NAOKFM=F Big=F
 Integral buffers will be    131072 words long.
 Raffenetti 2 integral format.
 Two-electron integral symmetry is turned on.
 One-electron integrals computed using PRISM.
 NBasis=   236 RedAO= T EigKep=  2.47D-06  NBF=   236
 NBsUse=   236 1.00D-06 EigRej= -1.00D+00 NBFU=   236
 Initial guess from the checkpoint file:  "4.chk"
 B after Tr=     0.000000    0.000000    0.000000
         Rot=    0.999999    0.000000    0.000000    0.001596 Ang=   0.18 deg.
 ExpMin= 4.38D-02 ExpMax= 1.06D+05 ExpMxC= 3.62D+03 IAcc=2 IRadAn=         4 AccDes= 0.00D+00
 Harris functional with IExCor=  402 and IRadAn=       4 diagonalized for initial guess.
 HarFok:  IExCor=  402 AccDes= 0.00D+00 IRadAn=         4 IDoV= 1 UseB2=F ITyADJ=14
 ICtDFT=  3500011 ScaDFX=  1.000000  1.000000  1.000000  1.000000
 FoFCou: FMM=F IPFlag=           0 FMFlag=      100000 FMFlg1=           0
         NFxFlg=           0 DoJE=T BraDBF=F KetDBF=T FulRan=T
         wScrn=  0.000000 ICntrl=     500 IOpCl=  0 I1Cent=   200000004 NGrid=           0
         NMat0=    1 NMatS0=      1 NMatT0=    0 NMatD0=    1 NMtDS0=    0 NMtDT0=    0
 Petite list used in FoFCou.
 Keep R1 ints in memory in canonical form, NReq=398711246.
 Requested convergence on RMS density matrix=1.00D-08 within 128 cycles.
 Requested convergence on MAX density matrix=1.00D-06.
 Requested convergence on             energy=1.00D-06.
 No special actions if energy rises.
 SCF Done:  E(RB3LYP) =  -805.290333402     A.U. after   13 cycles
            NFock= 13  Conv=0.61D-08     -V/T= 2.0031
 Calling FoFJK, ICntrl=      2127 FMM=F ISym2X=0 I1Cent= 0 IOpClX= 0 NMat=1 NMatS=1 NMatT=0.
 ***** Axes restored to original set *****
 -------------------------------------------------------------------
 Center     Atomic                   Forces (Hartrees/Bohr)
 Number     Number              X              Y              Z
 -------------------------------------------------------------------
      1        6          -0.002280574   -0.000797452   -0.000009400
      2        6           0.002557925   -0.005689521    0.000002357
      3        6          -0.000306380    0.004603585   -0.000004598
      4        6           0.001400272   -0.001669097    0.000005020
      5        6          -0.001308443    0.001266267   -0.000011009
      6        6           0.001405327    0.000051468    0.000011330
      7        1           0.000418791    0.000288748    0.000003427
      8        1          -0.000196737   -0.000824639    0.000001129
      9        1          -0.000200687    0.000507490   -0.000004504
     10        1           0.000014531   -0.000286758    0.000005636
     11        6          -0.000310897    0.006243097    0.000034074
     12        8           0.000510185   -0.001969032   -0.000013407
     13        1          -0.001058544   -0.001792387   -0.000015367
     14       17          -0.000644767    0.000068231   -0.000004687
 -------------------------------------------------------------------
 Cartesian Forces:  Max     0.006243097 RMS     0.001727927

 GradGradGradGradGradGradGradGradGradGradGradGradGradGradGradGradGradGrad
 Berny optimization.
 Using GEDIIS/GDIIS optimizer.
 FormGI is forming the generalized inverse of G from B-inverse, IUseBI=4.
 Internal  Forces:  Max     0.002819824 RMS     0.000833484
 Search for a local minimum.
 Step number   2 out of a maximum of   73
 All quantities printed in internal units (Hartrees-Bohrs-Radians)
 Mixed Optimization -- En-DIIS/RFO-DIIS
 Update second derivatives using D2CorX and points    1    2
 DE= -3.14D-03 DEPred=-2.91D-03 R= 1.08D+00
 TightC=F SS=  1.41D+00  RLast= 1.30D-01 DXNew= 5.0454D-01 3.9046D-01
 Trust test= 1.08D+00 RLast= 1.30D-01 DXMaxT set to 3.90D-01
 ITU=  1  0
 Use linear search instead of GDIIS.
     Eigenvalues ---    0.00237   0.00237   0.01571   0.02152   0.02153
     Eigenvalues ---    0.02154   0.02155   0.02155   0.02155   0.02156
     Eigenvalues ---    0.02157   0.15755   0.16000   0.16000   0.16000
     Eigenvalues ---    0.16014   0.20608   0.22026   0.23360   0.23659
     Eigenvalues ---    0.24733   0.25001   0.27679   0.29632   0.32586
     Eigenvalues ---    0.33681   0.33713   0.33721   0.34702   0.42252
     Eigenvalues ---    0.42349   0.46215   0.46447   0.46466   0.46961
     Eigenvalues ---    0.94518
 RFO step:  Lambda=-1.44599890D-04 EMin= 2.36823454D-03
 Quartic linear search produced a step of  0.06893.
 Iteration  1 RMS(Cart)=  0.00683964 RMS(Int)=  0.00005360
 Iteration  2 RMS(Cart)=  0.00005471 RMS(Int)=  0.00000586
 Iteration  3 RMS(Cart)=  0.00000000 RMS(Int)=  0.00000586
 Variable       Old X    -DE/DX   Delta X   Delta X   Delta X     New X
                                 (Linear)    (Quad)   (Total)
    R1        2.63800   0.00155   0.00011   0.00365   0.00375   2.64175
    R2        2.62594   0.00035  -0.00068   0.00132   0.00064   2.62658
    R3        2.05007  -0.00046  -0.00192  -0.00003  -0.00196   2.04811
    R4        2.63855   0.00264   0.00020   0.00605   0.00625   2.64479
    R5        2.81710  -0.00258  -0.00642  -0.00480  -0.01121   2.80589
    R6        2.62770  -0.00073  -0.00064  -0.00127  -0.00191   2.62578
    R7        2.04692  -0.00019  -0.00215   0.00100  -0.00115   2.04577
    R8        2.63716   0.00084   0.00009   0.00172   0.00181   2.63897
    R9        2.04706   0.00034  -0.00214   0.00267   0.00053   2.04759
   R10        2.63059   0.00018  -0.00040   0.00058   0.00018   2.63077
   R11        2.04688  -0.00025  -0.00216   0.00079  -0.00137   2.04552
   R12        3.31635   0.00064  -0.00066   0.00283   0.00217   3.31852
   R13        2.28454   0.00065  -0.00240   0.00237  -0.00003   2.28451
   R14        2.09023   0.00208  -0.00057   0.00724   0.00667   2.09690
    A1        2.08202  -0.00014  -0.00085   0.00042  -0.00043   2.08160
    A2        2.10385  -0.00015   0.00065  -0.00189  -0.00123   2.10261
    A3        2.09732   0.00029   0.00020   0.00147   0.00166   2.09898
    A4        2.10411  -0.00104   0.00066  -0.00446  -0.00380   2.10031
    A5        2.08103  -0.00083  -0.00090  -0.00310  -0.00400   2.07703
    A6        2.09804   0.00187   0.00024   0.00756   0.00780   2.10585
    A7        2.08486   0.00048  -0.00065   0.00299   0.00233   2.08720
    A8        2.08435  -0.00109  -0.00071  -0.00627  -0.00697   2.07738
    A9        2.11397   0.00061   0.00136   0.00328   0.00464   2.11861
   A10        2.10229   0.00023   0.00055   0.00023   0.00078   2.10308
   A11        2.09517   0.00032   0.00008   0.00247   0.00255   2.09772
   A12        2.08572  -0.00055  -0.00063  -0.00270  -0.00333   2.08239
   A13        2.08559  -0.00031  -0.00061  -0.00164  -0.00225   2.08334
   A14        2.10547   0.00029   0.00075   0.00134   0.00209   2.10756
   A15        2.09213   0.00002  -0.00014   0.00030   0.00016   2.09229
   A16        2.10750   0.00077   0.00090   0.00246   0.00336   2.11086
   A17        2.08764  -0.00027  -0.00048  -0.00070  -0.00117   2.08646
   A18        2.08805  -0.00051  -0.00043  -0.00176  -0.00219   2.08587
   A19        2.16163   0.00282   0.00196   0.01213   0.01407   2.17569
   A20        2.00758  -0.00123  -0.00063  -0.00519  -0.00584   2.00174
   A21        2.11397  -0.00159  -0.00133  -0.00694  -0.00830   2.10568
    D1        0.00006   0.00000  -0.00003   0.00001  -0.00002   0.00004
    D2        3.14145   0.00000   0.00005  -0.00003   0.00001   3.14146
    D3        3.14158   0.00000  -0.00003   0.00008   0.00005  -3.14156
    D4       -0.00022   0.00000   0.00005   0.00004   0.00009  -0.00013
    D5       -0.00007   0.00000  -0.00002   0.00016   0.00014   0.00006
    D6       -3.14151   0.00000   0.00002  -0.00015  -0.00013   3.14155
    D7       -3.14159   0.00000  -0.00002   0.00008   0.00006  -3.14153
    D8        0.00016   0.00000   0.00002  -0.00022  -0.00020  -0.00004
    D9       -0.00002   0.00000   0.00007  -0.00015  -0.00008  -0.00010
   D10        3.14154   0.00000   0.00004  -0.00004   0.00000   3.14154
   D11       -3.14141   0.00000  -0.00001  -0.00010  -0.00012  -3.14153
   D12        0.00015   0.00000  -0.00004   0.00000  -0.00004   0.00012
   D13       -3.14145  -0.00002   0.00001  -0.00693  -0.00692   3.13482
   D14       -0.00028   0.00002  -0.00002   0.00667   0.00665   0.00637
   D15       -0.00006  -0.00001   0.00009  -0.00698  -0.00688  -0.00694
   D16        3.14111   0.00002   0.00006   0.00662   0.00669  -3.13539
   D17       -0.00001   0.00000  -0.00004   0.00012   0.00008   0.00007
   D18        3.14150   0.00000  -0.00001   0.00012   0.00011  -3.14157
   D19       -3.14157   0.00000  -0.00002   0.00001   0.00000  -3.14157
   D20       -0.00006   0.00000   0.00001   0.00002   0.00003  -0.00003
   D21        0.00000   0.00000  -0.00002   0.00005   0.00003   0.00003
   D22       -3.14150   0.00000   0.00001  -0.00009  -0.00009  -3.14159
   D23       -3.14151   0.00000  -0.00005   0.00004   0.00000  -3.14151
   D24        0.00018   0.00000  -0.00002  -0.00010  -0.00012   0.00006
   D25        0.00005   0.00000   0.00005  -0.00019  -0.00014  -0.00009
   D26        3.14148   0.00000   0.00001   0.00012   0.00013  -3.14158
   D27        3.14154   0.00000   0.00003  -0.00005  -0.00002   3.14152
   D28       -0.00021   0.00000  -0.00002   0.00026   0.00024   0.00003
         Item               Value     Threshold  Converged?
 Maximum Force            0.002820     0.000450     NO 
 RMS     Force            0.000833     0.000300     NO 
 Maximum Displacement     0.034566     0.001800     NO 
 RMS     Displacement     0.006850     0.001200     NO 
 Predicted change in Energy=-8.923406D-05
 GradGradGradGradGradGradGradGradGradGradGradGradGradGradGradGradGradGrad

                          Input orientation:                          
 ---------------------------------------------------------------------
 Center     Atomic      Atomic             Coordinates (Angstroms)
 Number     Number       Type             X           Y           Z
[...]
 RMS     Displacement     0.000276     0.001200     YES
 Predicted change in Energy=-1.194209D-08
 Optimization completed.
    -- Stationary point found.
                           ----------------------------
                           !   Optimized Parameters   !
                           ! (Angstroms and Degrees)  !
 --------------------------                            --------------------------
 ! Name  Definition              Value          Derivative Info.                !
 --------------------------------------------------------------------------------
 ! R1    R(1,2)                  1.3983         -DE/DX =    0.0                 !
 ! R2    R(1,6)                  1.3897         -DE/DX =    0.0                 !
 ! R3    R(1,7)                  1.0841         -DE/DX =    0.0                 !
 ! R4    R(2,3)                  1.4002         -DE/DX =    0.0                 !
 ! R5    R(2,11)                 1.484          -DE/DX =    0.0                 !
 ! R6    R(3,4)                  1.3885         -DE/DX =    0.0                 !
 ! R7    R(3,8)                  1.0831         -DE/DX =    0.0                 !
 ! R8    R(4,5)                  1.397          -DE/DX =    0.0                 !
 ! R9    R(4,9)                  1.0838         -DE/DX =    0.0                 !
 ! R10   R(5,6)                  1.3917         -DE/DX =    0.0                 !
 ! R11   R(5,10)                 1.0827         -DE/DX =    0.0                 !
 ! R12   R(6,14)                 1.7571         -DE/DX =    0.0                 !
 ! R13   R(11,12)                1.2095         -DE/DX =    0.0                 !
 ! R14   R(11,13)                1.1102         -DE/DX =    0.0                 !
 ! A1    A(2,1,6)              119.2645         -DE/DX =    0.0                 !
 ! A2    A(2,1,7)              120.4365         -DE/DX =    0.0                 !
 ! A3    A(6,1,7)              120.2991         -DE/DX =    0.0                 !
 ! A4    A(1,2,3)              120.2822         -DE/DX =    0.0                 !
 ! A5    A(1,2,11)             118.9179         -DE/DX =    0.0                 !
 ! A6    A(3,2,11)             120.7999         -DE/DX =    0.0                 !
 ! A7    A(2,3,4)              119.6352         -DE/DX =    0.0                 !
 ! A8    A(2,3,8)              118.8917         -DE/DX =    0.0                 !
 ! A9    A(4,3,8)              121.4731         -DE/DX =    0.0                 !
 ! A10   A(3,4,5)              120.4915         -DE/DX =    0.0                 !
 ! A11   A(3,4,9)              120.2349         -DE/DX =    0.0                 !
 ! A12   A(5,4,9)              119.2735         -DE/DX =    0.0                 !
 ! A13   A(4,5,6)              119.3464         -DE/DX =    0.0                 !
 ! A14   A(4,5,10)             120.7591         -DE/DX =    0.0                 !
 ! A15   A(6,5,10)             119.8945         -DE/DX =    0.0                 !
 ! A16   A(1,6,5)              120.9802         -DE/DX =    0.0                 !
 ! A17   A(1,6,14)             119.5171         -DE/DX =    0.0                 !
 ! A18   A(5,6,14)             119.5027         -DE/DX =    0.0                 !
 ! A19   A(2,11,12)            124.662          -DE/DX =    0.0                 !
 ! A20   A(2,11,13)            114.6498         -DE/DX =    0.0                 !
 ! A21   A(12,11,13)           120.6882         -DE/DX =    0.0                 !
 ! D1    D(6,1,2,3)              0.0024         -DE/DX =    0.0                 !
 ! D2    D(6,1,2,11)          -179.9979         -DE/DX =    0.0                 !
 ! D3    D(7,1,2,3)           -179.999          -DE/DX =    0.0                 !
 ! D4    D(7,1,2,11)             0.0007         -DE/DX =    0.0                 !
 ! D5    D(2,1,6,5)             -0.0025         -DE/DX =    0.0                 !
 ! D6    D(2,1,6,14)           179.9987         -DE/DX =    0.0                 !
 ! D7    D(7,1,6,5)            179.9989         -DE/DX =    0.0                 !
 ! D8    D(7,1,6,14)             0.0            -DE/DX =    0.0                 !
 ! D9    D(1,2,3,4)             -0.0004         -DE/DX =    0.0                 !
 ! D10   D(1,2,3,8)           -180.0005         -DE/DX =    0.0                 !
 ! D11   D(11,2,3,4)          -180.0002         -DE/DX =    0.0                 !
 ! D12   D(11,2,3,8)            -0.0002         -DE/DX =    0.0                 !
 ! D13   D(1,2,11,12)          180.0496         -DE/DX =    0.0                 !
 ! D14   D(1,2,11,13)            0.0482         -DE/DX =    0.0                 !
 ! D15   D(3,2,11,12)            0.0493         -DE/DX =    0.0                 !
 ! D16   D(3,2,11,13)          180.0479         -DE/DX =    0.0                 !
 ! D17   D(2,3,4,5)             -0.0015         -DE/DX =    0.0                 !
 ! D18   D(2,3,4,9)           -180.0007         -DE/DX =    0.0                 !
 ! D19   D(8,3,4,5)            179.9986         -DE/DX =    0.0                 !
 ! D20   D(8,3,4,9)             -0.0006         -DE/DX =    0.0                 !
 ! D21   D(3,4,5,6)              0.0014         -DE/DX =    0.0                 !
 ! D22   D(3,4,5,10)           180.0005         -DE/DX =    0.0                 !
 ! D23   D(9,4,5,6)            180.0006         -DE/DX =    0.0                 !
 ! D24   D(9,4,5,10)            -0.0002         -DE/DX =    0.0                 !
 ! D25   D(4,5,6,1)              0.0006         -DE/DX =    0.0                 !
 ! D26   D(4,5,6,14)           179.9995         -DE/DX =    0.0                 !
 ! D27   D(10,5,6,1)          -179.9986         -DE/DX =    0.0                 !
 ! D28   D(10,5,6,14)            0.0003         -DE/DX =    0.0                 !
 --------------------------------------------------------------------------------
 GradGradGradGradGradGradGradGradGradGradGradGradGradGradGradGradGradGrad

 1\1\GINC-COREV4-21-004\Freq\RB3LYP\6-311+G(d,p)\C7H5Cl1O1\SWEAV003\23-
 Apr-2024\0\\#N Geom=AllCheck Guess=TCheck SCRF=Check GenChk RB3LYP/6-3
 11+G(d,p) Freq\\Title Card Required\\0,1\C,0.0443978011,-0.0693414743,
 0.0003478217\C,1.4426108291,-0.056089612,0.0006527012\C,2.1371770843,1
 .1596811436,-0.0001007491\C,1.4298526928,2.3544817593,-0.0011632315\C,
 0.0328107497,2.3512120154,-0.0015153962\C,-0.6464073956,1.1365073387,-
 0.0007604619\H,-0.495884063,-1.0091683035,0.0009458723\H,3.2201856415,
 1.1436609473,0.000163801\H,1.9575860605,3.3010965424,-0.0017418076\H,-
 0.5230644282,3.2802626036,-0.0023518645\C,2.172475085,-1.3481748225,0.
 0017902016\O,3.3770077716,-1.4578180679,0.0030053843\H,1.5216739776,-2
 .2475779123,0.0014729566\Cl,-2.4035074964,1.1276020524,-0.0011853476\\
 Version=ES64L-G09RevD.01\State=1-A\HF=-805.2904335\RMSD=6.361e-09\RMSF
 =9.815e-06\ZeroPoint=0.0997516\Thermal=0.1072696\Dipole=-0.5010005,0.6
 431137,-0.0012355\DipoleDeriv=-0.2149939,-0.1047423,0.0000571,0.115504
 6,0.0581734,0.0004074,0.0005691,-0.0003975,-0.0896397,-0.168658,0.1998
 792,-0.0002365,0.45026,-0.6235722,0.0003806,-0.0013638,0.0004757,0.000
 3534,-0.0246394,0.0786977,0.0001433,-0.1567118,0.0132564,-0.0000218,0.
 0007182,-0.0000634,-0.0893714,-0.0743977,0.1099919,-0.0001932,0.107347
 ,0.0956108,-0.0001412,-0.0009208,0.0000301,-0.1141385,-0.1988365,-0.02
 98849,0.0002771,-0.0380967,0.0281615,-0.0002672,0.0001543,-0.00008,-0.
 0890365,1.3327368,-0.0664006,0.0001738,-0.0327611,-0.1274522,-0.000263
 7,0.0001698,0.0001185,-0.0186329,0.0696575,-0.0379098,-0.0000092,-0.05
 84244,0.0074424,0.0000905,0.0001276,0.0000507,0.1394362,0.0077204,-0.0
 216856,-0.0000398,0.0044446,0.0994128,0.0000235,-0.0000055,-0.0000217,
 0.1358277,0.0242605,-0.0596617,0.0000257,-0.0521513,-0.0448547,0.00012
 23,0.0000682,0.0001078,0.136115,0.0535086,0.054948,-0.0000457,0.050211
 2,0.0167142,0.0000688,-0.0002137,0.0001149,0.138485,1.3835397,-0.50733
 68,0.001404,-0.5465256,1.3727705,-0.0007877,0.0011618,-0.0007333,0.178
 4104,-1.2613207,0.5201135,-0.0011421,0.2394341,-0.6496755,0.000306,-0.
 0006215,0.0004452,-0.3331844,-0.0733677,-0.1733811,-0.0000935,-0.08312
 46,-0.1685753,-0.0000252,-0.0000984,-0.0000116,0.0691082,-0.8552096,0.
 0373726,-0.0003208,0.000594,-0.077412,0.0001077,0.0002547,-0.0000354,-
 0.0637324\Polar=130.9408614,-12.9660574,108.3575552,0.024635,-0.038522
 1,51.2362896\PG=C01 [X(C7H5Cl1O1)]\NImag=0\\0.66996035,0.03430610,0.72
 231630,0.00010416,-0.00043298,0.13261697,-0.31599180,-0.03698574,-0.00
 002007,0.67581520,0.01546778,-0.12422752,0.00004128,0.03308087,0.63566
 844,-0.00008014,0.00001084,-0.06068545,0.00012799,-0.00034874,0.137425
 87,-0.02738815,-0.02970238,0.00001577,-0.17702890,-0.10816749,0.000049
 46,0.74252505,-0.06906600,0.03183296,-0.00003261,-0.06163513,-0.253508
 00,0.00013639,-0.01929470,0.65773836,0.00005469,-0.00001668,0.00680416
 ,0.00002166,0.00012533,-0.06540708,0.00015469,-0.00039896,0.13804674,-
 0.04792195,0.02855792,-0.00002974,0.05733215,0.02546763,-0.00000505,-0
 .18361360,0.06151590,-0.00007315,0.66581949,0.02888190,-0.01855412,0.0
 0001572,-0.01778569,-0.05880351,0.00004827,0.12469889,-0.28842144,0.00
 019716,0.03074390,0.72586247,-0.00004571,0.00000571,-0.00390227,0.0000
 1638,0.00005400,0.00768674,-0.00012051,0.00018230,-0.06325634,0.000103
 60,-0.00043159,0.13477181,0.06059245,-0.02323779,0.00003957,-0.0447958
 1,-0.02700864,-0.00000716,-0.02947709,0.07381857,-0.00005504,-0.323824
 79,-0.03473146,-0.00005184,0.67356247,0.02296585,-0.05557783,0.0000444
 4,-0.02767986,-0.01802488,0.00001486,0.02931565,0.03551549,-0.00002223
 ,0.03373610,-0.12952417,0.00007179,-0.04521493,0.71863002,-0.00000160,
 0.00004380,0.00752243,0.00001315,0.00000560,-0.00468802,-0.00003157,-0
 .00000539,0.00660320,-0.00009206,0.00004300,-0.06138110,0.00017124,-0.
 00045662,0.13309705,-0.15329563,0.11683913,-0.00013353,-0.02908263,0.0
 2279664,0.00001361,0.00173854,0.00142489,-0.00002245,-0.02839634,-0.02
 729261,0.00004336,-0.15101722,-0.11361043,0.00005760,0.50179610,0.0526
 4589,-0.28158007,0.00017855,0.07739875,0.02851910,0.00000829,-0.000146
 28,-0.07127441,0.00004893,-0.08194796,0.03585151,-0.00004144,-0.047104
 45,-0.28304583,0.00015576,-0.00198143,0.64409980,-0.00006658,0.0001975
 0,-0.06401438,-0.00007204,-0.00001169,0.00673133,0.00000189,0.00004943
 ,-0.00504203,0.00005138,-0.00002798,0.00672688,0.00001359,0.00014322,-
 0.06392918,0.00010138,-0.00040258,0.12327117,-0.12651040,-0.12230734,0
 .00007123,-0.00993088,-0.02666628,0.00001917,-0.00543281,0.00155512,-0
 .00000489,-0.00061822,0.00062664,0.00000114,-0.00141492,0.00327098,-0.
 00000451,0.00964212,0.01534877,-0.00000974,0.13169248,-0.11824565,-0.2
 6729799,0.00014916,-0.00151502,0.00384714,0.00000072,0.00079875,0.0012
 8385,0.00000247,0.00073011,0.00023745,0.00000095,0.00392153,-0.0027913
 9,0.00000711,-0.01577706,-0.01886309,0.00001411,0.12959011,0.28266246,
 0.00007416,0.00015005,-0.03584564,-0.00000224,-0.00000516,0.00290707,-
 0.00000263,0.00000452,0.00633803,0.00000044,-0.00000175,-0.00099485,-0
 .00000389,0.00000531,0.00586250,0.00000913,0.00002107,0.00331379,-0.00
 007414,-0.00016866,0.02480464,0.00040376,-0.00256872,-0.00000054,-0.01
 190707,-0.00068197,-0.00000191,-0.34042435,0.00208044,-0.00007105,-0.0
 0880341,-0.00230837,-0.00000046,0.00055790,0.00227699,-0.00000361,0.00
 059001,0.00018536,0.00000051,-0.00047360,0.00030747,-0.00000064,0.3604
 8037,-0.00188860,-0.00484123,0.00000767,-0.02780633,0.00541038,-0.0000
 0774,0.00243328,-0.05851406,0.00001298,0.02756171,0.00438343,0.0000068
 4,0.00229789,-0.00430610,0.00000951,-0.00002401,-0.00136088,0.00000047
 ,-0.00141990,0.00002403,0.00000018,-0.00167390,0.05630367,-0.00000129,
 0.00000918,0.00609215,0.00002037,-0.00000578,0.00347958,-0.00007057,0.
 00001496,-0.03882956,-0.00002452,0.00000023,0.00421824,-0.00000204,0.0
 0000909,0.00738147,-0.00000004,-0.00000107,-0.00069210,0.00000083,0.00
 000069,0.00047255,0.00007836,-0.00002048,0.02660317,-0.00084065,0.0007
 9208,-0.00000038,-0.00093084,0.00330606,-0.00000524,0.01196761,0.01554
 850,-0.00000968,-0.12502973,-0.11868485,0.00006767,-0.01160685,-0.0286
 0632,0.00001808,-0.00405886,0.00095757,-0.00000362,0.00005307,-0.00003
 580,0.00000027,0.00071689,-0.00053163,0.00000168,0.12954121,0.00084793
 ,0.00028553,-0.00000045,0.00395238,-0.00316553,0.00000885,-0.01505850,
 -0.01849808,0.00001367,-0.11889052,-0.27132746,0.00014476,0.00240877,0
 .00368288,0.00000056,0.00066455,0.00172468,0.00000406,-0.00007088,-0.0
 0005291,-0.00000050,0.00011862,0.00099753,-0.00000391,0.12709986,0.286
 37111,0.00000017,-0.00000012,-0.00090872,-0.00000443,0.00000858,0.0075
 2052,0.00001336,0.00002089,0.00383635,0.00006869,0.00014483,-0.0380249
 5,-0.00000546,-0.00000818,0.00339349,-0.00000486,0.00000461,0.00706048
 ,0.00000016,-0.00000062,-0.00076557,0.00000113,-0.00000425,-0.00426601
 ,-0.00007001,-0.00016373,0.02609738,-0.00120931,-0.00328689,-0.0000000
 2,-0.00076530,-0.00090980,0.00000215,-0.00541825,-0.00110398,-0.000003
 16,-0.00998741,0.02736468,-0.00002299,-0.13075005,0.12595002,-0.000118
 65,0.00939731,-0.01495072,0.00001312,0.00059303,-0.00074459,0.00000056
 ,-0.00040688,0.00122141,-0.00000083,0.00100881,-0.00030085,0.00000140,
 0.13643814,-0.00359991,-0.00312983,0.00000674,-0.00093507,0.00034420,-
 0.00000313,-0.00091572,0.00151550,0.00000507,-0.00246318,0.00507331,-0
 .00000277,0.12317925,-0.26775765,0.00020439,0.01629440,-0.01869910,0.0
 0002080,0.00074931,-0.00081765,0.00000101,-0.00022466,0.00013147,-0.00
 000030,0.00031677,0.00065198,-0.00000334,-0.13293344,0.28164521,-0.000
 00103,0.00000366,0.00595974,-0.00000050,-0.00000181,-0.00071192,-0.000
 00270,0.00000439,0.00698942,-0.00000162,0.00000699,0.00414028,-0.00011
 847,0.00020590,-0.03741076,-0.00000461,0.00001361,0.00352937,-0.000000
 19,0.00000071,0.00006611,0.00000031,0.00000009,-0.00011735,0.00000093,
 -0.00000359,-0.00394904,0.00012816,-0.00022675,0.02481172,-0.02987194,
 0.03150561,-0.00003314,-0.09998975,0.00261844,-0.00001690,0.02145276,0
 .00328116,0.00000711,0.00265562,-0.00961204,0.00000591,-0.00368532,-0.
 00155596,0.00000137,-0.00685810,-0.00130228,-0.00000141,0.00011822,0.0
 0342431,-0.00000036,-0.00225253,-0.00234570,-0.00000017,0.00081794,-0.
 00181416,0.00000152,-0.00022292,-0.00001849,-0.00000058,0.94707715,0.0
 1308705,0.00424620,0.00000857,0.03076071,-0.19577896,0.00007381,0.0115
 6456,-0.03673910,0.00002962,-0.00549500,-0.00247085,0.00000454,-0.0030
 6460,-0.00030700,-0.00000103,0.00037616,0.00603864,-0.00000065,-0.0037
 1972,0.00004107,-0.00000344,0.00142091,0.00072707,-0.00000194,0.000599
 54,-0.00034010,0.00000087,0.00004452,-0.00016469,-0.00000065,0.0149714
 7,0.54684613,-0.00002523,0.00000351,0.00034196,-0.00001745,0.00006056,
 -0.07469353,-0.00000144,0.00003201,0.00312593,0.00000103,0.00000351,0.
 00668736,0.00000005,0.00000263,-0.00115090,0.00000005,0.00000142,0.008
 94365,0.00000171,-0.00000076,-0.00459055,-0.00000190,-0.00000521,-0.00
 376395,-0.00000022,-0.00000071,0.00015996,0.00000020,-0.00000083,-0.00
 091695,0.00070721,-0.00013112,0.18598242,0.00877419,0.00383775,-0.0000
 0047,-0.05222125,0.04445973,-0.00008043,-0.00509993,-0.01072502,0.0000
 0547,-0.00170703,0.00230521,-0.00000100,-0.00017368,-0.00005032,0.0000
 0005,0.00194437,0.00243891,0.00000116,0.00091796,-0.00135977,-0.000001
 40,0.00152379,0.00178410,-0.00000126,-0.00013860,0.00061514,-0.0000008
 2,0.00017855,0.00010488,-0.00000033,-0.72588380,0.03562791,-0.00065974
 ,0.82233564,-0.00089293,-0.00655921,0.00000621,0.04794783,0.00449202,0
 .00004982,-0.00025849,0.00024485,0.00000209,0.00052897,0.00254571,-0.0
 0000300,0.00209300,0.00023237,-0.00000018,0.00060546,-0.00161008,-0.00
 000048,0.00092184,0.00015168,0.00000071,0.00122121,0.00048754,0.000000
 37,-0.00015471,0.00006229,0.00000024,0.00015933,0.00002114,0.00000038,
 0.04264360,-0.10767603,0.00006326,-0.06701842,0.09109405,0.00001168,0.
 00001609,0.00291968,-0.00008247,0.00004281,0.01815088,-0.00000357,-0.0
 0000735,-0.00050452,0.00000112,-0.00000255,-0.00052687,0.00000196,-0.0
 0000515,-0.00004225,-0.00001075,0.00000096,-0.00197490,0.00000012,-0.0
 0000156,0.00087006,0.00000038,0.00000003,-0.00008465,0.00000004,0.0000
 0079,0.00013658,-0.00000058,0.00000084,0.00016254,-0.00066117,0.000058
 15,-0.06161002,0.00080261,-0.00009302,0.02333412,0.00150579,0.00125041
 ,-0.00000095,0.00695803,0.01058431,-0.00001192,-0.00139610,0.00220315,
 -0.00000335,0.00063552,0.00066903,0.00000049,0.00022075,-0.00000277,-0
 .00000021,0.00009990,-0.00057547,0.00000183,0.00022438,-0.00055287,-0.
 00000036,-0.00003623,0.00037413,-0.00000057,-0.00008642,0.00016300,-0.
 00000012,0.00000732,0.00001328,0.00000004,-0.10377663,-0.09246263,-0.0
 0000773,-0.04847590,-0.02950950,-0.00005622,0.14400285,-0.00180105,0.0
 0004429,-0.00000038,-0.01712972,-0.02099234,0.00000208,0.00475701,-0.0
 0324948,0.00000271,-0.00171190,-0.00076226,0.00000121,0.00035202,0.000
 30135,-0.00000040,0.00022563,-0.00007758,0.00000079,0.00152627,0.00030
 345,-0.00000070,-0.00018162,0.00031932,-0.00000052,0.00028810,-0.00046
 057,0.00000039,0.00009139,0.00005877,0.,-0.08228258,-0.21487869,-0.000
 02764,-0.01243581,0.01682254,-0.00001079,0.10782282,0.22257780,0.00000
 093,0.00000261,-0.00113512,-0.00000455,0.00002594,0.01722615,-0.000001
 14,0.00000124,0.00211869,-0.00000126,0.00000097,-0.00082066,0.00000166
 ,0.00000045,0.00032165,-0.00000067,-0.00000193,-0.00054025,-0.00000054
 ,-0.00000022,0.00013830,-0.00000025,0.00000071,0.00027142,0.00000007,-
 0.00000009,-0.00035941,0.00000004,-0.00000004,-0.00003614,-0.00000969,
 -0.00003703,-0.05866365,-0.00006373,-0.00002627,0.01934190,0.00007946,
 0.00003340,0.02208832,-0.03820671,0.00099987,-0.00001188,0.00253886,0.
 00565271,-0.00000362,-0.00240478,0.00039708,-0.00000084,0.00345969,-0.
 00487523,0.00000395,-0.03818783,-0.00079502,-0.00000927,-0.15249959,-0
 .00096667,-0.00003149,0.00113958,-0.00054151,0.00000110,0.00003135,0.0
 0001756,0.00000005,-0.00141358,0.00026467,-0.00000071,0.00113696,0.000
 43259,0.00000059,0.00041930,-0.00371086,0.00000345,-0.00197430,0.00171
 284,-0.00000314,0.00011674,0.00047944,-0.00000032,0.22584431,0.0272916
 4,0.00304252,0.00000809,-0.00166797,-0.00378055,0.00000569,-0.00002459
 ,0.00207355,-0.00000216,0.00166632,-0.00409007,0.00000671,-0.02770915,
 0.00297274,-0.00000613,-0.00054131,-0.03972270,0.00001301,0.00059508,0
 .00127190,-0.00000263,0.00002825,0.00023784,-0.00000054,-0.00089518,0.
 00006865,-0.00000016,-0.00060108,0.00112735,-0.00000291,0.00048662,0.0
 0045632,-0.00000064,0.00041569,-0.00030887,0.00000073,0.00002314,-0.00
 000660,0.00000024,0.00093253,0.03665791,-0.00002421,0.00000682,0.00423
 450,0.00000419,0.00000907,0.00505786,-0.00000104,-0.00000181,-0.000823
 00,0.00000114,0.00000320,0.00467573,0.00001584,-0.00000550,0.00442040,
 -0.00004822,0.00001381,-0.02338385,-0.00000035,-0.00000409,-0.00257646
 ,-0.00000034,-0.00000081,-0.00076495,0.00000042,0.00000029,0.00006893,
 0.00000060,-0.00000167,-0.00251702,0.00000030,0.00000028,0.00014827,-0
 .00000009,-0.00000012,-0.00017257,-0.00000038,-0.00000014,0.00004879,0
 .00005213,-0.00001933,0.01158336\\-0.00001169,0.00001777,0.00000959,0.
 00002991,0.00000241,0.00000073,-0.00002144,0.00001288,-0.00000439,0.00
 000999,-0.00000842,0.00000191,0.00000049,-0.00000152,-0.00000160,0.000
 00766,-0.00000258,-0.00000468,0.00000148,-0.00000329,0.00000150,0.0000
 0182,-0.00000726,-0.00000071,0.00000107,-0.00000249,0.00000094,-0.0000
 0115,0.00000084,0.00000071,-0.00002778,-0.00001960,-0.00000700,0.00001
 234,-0.00000193,0.00000718,0.00000494,0.00000876,-0.00000389,-0.000007
 64,0.00000442,-0.00000029\\\@


 I think that all right-thinking people in this
 country are sick and tired of being told that
 ordinary, decent people are fed up in this country
 with being sick and tired.  I'm certainly not!
 But I'm sick and tired of being told that I am!
                               -- Monty Python
 Job cpu time:       0 days  0 hours 19 minutes 19.3 seconds.
 File lengths (MBytes):  RWF=     85 Int=      0 D2E=      0 Chk=      5 Scr=      1
 Normal termination of Gaussian 09 at Tue Apr 23 12:09:59 2024.
