	You are loading a legacy vmd module, please load an up to date module instead.


	 module load container_env vmd

	Please run vmd command with crun.vmd prepend to it:
	
	 crun.vmd vmd

	 
module: Command not found.
module: Command not found.
 Entering Gaussian System, Link 0=g09
 Initial command:
 /opt/gaussian/g09/l1.exe "/tmp/G09-83.com.o10577476.tmp/Gau-1690089.inp" -scrdir="/tmp/G09-83.com.o10577476.tmp/"
 Entering Link 1 = /opt/gaussian/g09/l1.exe PID=   1690090.
  
 Copyright (c) 1988,1990,1992,1993,1995,1998,2003,2009,2013,
            Gaussian, Inc.  All Rights Reserved.
  
 This is part of the Gaussian(R) 09 program.  It is based on
 the Gaussian(R) 03 system (copyright 2003, Gaussian, Inc.),
 the Gaussian(R) 98 system (copyright 1998, Gaussian, Inc.),
 the Gaussian(R) 94 system (copyright 1995, Gaussian, Inc.),
 the Gaussian 92(TM) system (copyright 1992, Gaussian, Inc.),
 the Gaussian 90(TM) system (copyright 1990, Gaussian, Inc.),
 the Gaussian 88(TM) system (copyright 1988, Gaussian, Inc.),
 the Gaussian 86(TM) system (copyright 1986, Carnegie Mellon
 University), and the Gaussian 82(TM) system (copyright 1983,
 Carnegie Mellon University). Gaussian is a federally registered
 trademark of Gaussian, Inc.
  
 This software contains proprietary and confidential information,
 including trade secrets, belonging to Gaussian, Inc.
  
 This software is provided under written license and may be
 used, copied, transmitted, or stored only in accord with that
 written license.
  
 The following legend is applicable only to US Government
 contracts under FAR:
  
                    RESTRICTED RIGHTS LEGEND
  
 Use, reproduction and disclosure by the US Government is
 subject to restrictions as set forth in subparagraphs (a)
 and (c) of the Commercial Computer Software - Restricted
 Rights clause in FAR 52.227-19.
  
 Gaussian, Inc.
 340 Quinnipiac St., Bldg. 40, Wallingford CT 06492
  
  
 ---------------------------------------------------------------
 Warning -- This program may not be used in any manner that
 competes with the business of Gaussian, Inc. or will provide
 assistance to any competitor of Gaussian, Inc.  The licensee
 of this program is prohibited from giving any competitor of
 Gaussian, Inc. access to this program.  By using this program,
 the user acknowledges that Gaussian, Inc. is engaged in the
 business of creating and licensing software in the field of
 computational chemistry and represents and warrants to the
 licensee that it is not a competitor of Gaussian, Inc. and that
 it will not use this program in any manner prohibited above.
 ---------------------------------------------------------------
  

 Cite this work as:
 Gaussian 09, Revision D.01,
 M. J. Frisch, G. W. Trucks, H. B. Schlegel, G. E. Scuseria, 
 M. A. Robb, J. R. Cheeseman, G. Scalmani, V. Barone, B. Mennucci, 
 G. A. Petersson, H. Nakatsuji, M. Caricato, X. Li, H. P. Hratchian, 
 A. F. Izmaylov, J. Bloino, G. Zheng, J. L. Sonnenberg, M. Hada, 
 M. Ehara, K. Toyota, R. Fukuda, J. Hasegawa, M. Ishida, T. Nakajima, 
 Y. Honda, O. Kitao, H. Nakai, T. Vreven, J. A. Montgomery, Jr., 
 J. E. Peralta, F. Ogliaro, M. Bearpark, J. J. Heyd, E. Brothers, 
 K. N. Kudin, V. N. Staroverov, T. Keith, R. Kobayashi, J. Normand, 
 K. Raghavachari, A. Rendell, J. C. Burant, S. S. Iyengar, J. Tomasi, 
 M. Cossi, N. Rega, J. M. Millam, M. Klene, J. E. Knox, J. B. Cross, 
 V. Bakken, C. Adamo, J. Jaramillo, R. Gomperts, R. E. Stratmann, 
 O. Yazyev, A. J. Austin, R. Cammi, C. Pomelli, J. W. Ochterski, 
 R. L. Martin, K. Morokuma, V. G. Zakrzewski, G. A. Voth, 
 P. Salvador, J. J. Dannenberg, S. Dapprich, A. D. Daniels, 
 O. Farkas, J. B. Foresman, J. V. Ortiz, J. Cioslowski, 
 and D. J. Fox, Gaussian, Inc., Wallingford CT, 2013.
 
 ******************************************
 Gaussian 09:  ES64L-G09RevD.01 24-Apr-2013
                23-Apr-2024 
 ******************************************
 %nprocshared=20
 Will use up to   20 processors via shared memory.
 %mem=4GB
 %chk=83.chk
 ----------------------------------------------------------------------
 # opt freq=noraman b3lyp/6-311+g(d,p) pop=(npa,hirshfeld,chelpg,mbs) g
 eom=connectivity
 ----------------------------------------------------------------------
 1/14=-1,18=20,19=15,26=3,38=1,57=2/1,3;
 2/9=110,12=2,17=6,18=5,40=1/2;
 3/5=4,6=6,7=111,11=2,16=1,25=1,30=1,71=1,74=-5/1,2,3;
 4//1;
 5/5=2,38=5/2;
 6/7=2,8=2,9=2,10=2,15=8,20=3,27=100,28=1,40=-1,79=1/1,2,7;
 7//1,2,3,16;
 1/14=-1,18=20,19=15,26=3/3(2);
 2/9=110/2;
 99//99;
 2/9=110/2;
 3/5=4,6=6,7=111,11=2,16=1,25=1,30=1,71=1,74=-5/1,2,3;
 4/5=5,16=3,69=1/1;
 5/5=2,38=5/2;
 7//1,2,3,16;
 1/14=-1,18=20,19=15,26=3/3(-5);
 2/9=110/2;
 6/7=2,8=2,9=2,10=2,15=8,19=2,20=3,27=100,28=1,40=-1,79=1/1,2,7;
 99/9=1/99;
 -------------------
 Title Card Required
 -------------------
 Symbolic Z-matrix:
 Charge =  0 Multiplicity = 1
 N                     3.07383  -3.18781   1.37031 
 H                     3.03475  -3.696     2.23067 
 C                     2.82641  -4.10447   0.24808 
 O                     2.28147  -3.67909  -0.80342 
 C                     3.53222  -5.98258  -0.94673 
 C                     2.30663  -5.85547  -1.87052 
 H                     1.49348  -6.41973  -1.46393 
 H                     2.02336  -4.82654  -1.94771 
 H                     2.55149  -6.23183  -2.84175 
 C                     4.70254  -5.17046  -1.53191 
 H                     5.55408  -5.25878  -0.89006 
 H                     4.9474   -5.54682  -2.50314 
 H                     4.41927  -4.14153  -1.60911 
 C                     3.93991  -7.46347  -0.83563 
 H                     4.18477  -7.83982  -1.80687 
 H                     4.79146  -7.55178  -0.19378 
 H                     3.12677  -8.02773  -0.42905 
 C                     2.04937  -2.13362   1.37693 
 C                     2.26218  -0.94527   0.66526 
 C                     0.8599   -2.31696   2.09489 
 C                     1.28552   0.05973   0.67155 
 H                     3.17036  -0.80528   0.11708 
 C                    -0.11676  -1.31197   2.10118 
 H                     0.69741  -3.22429   2.63826 
 C                     0.09605  -0.12362   1.38951 
 H                     1.448     0.96705   0.12818 
 Cl                   -1.6106   -1.54223   3.00287 
 H                    -0.64965   0.64372   1.39432 
 C                     3.20497  -5.47959   0.35127 
 H                     2.39191  -6.04409   0.75769 
 H                     4.05641  -5.56765   0.99328 
 

 GradGradGradGradGradGradGradGradGradGradGradGradGradGradGradGradGradGrad
 Berny optimization.
 Initialization pass.
                           ----------------------------
                           !    Initial Parameters    !
                           ! (Angstroms and Degrees)  !
 --------------------------                            --------------------------
 ! Name  Definition              Value          Derivative Info.                !
 --------------------------------------------------------------------------------
 ! R1    R(1,2)                  1.0            estimate D2E/DX2                !
 ! R2    R(1,3)                  1.47           estimate D2E/DX2                !
 ! R3    R(1,18)                 1.47           estimate D2E/DX2                !
 ! R4    R(3,4)                  1.2584         estimate D2E/DX2                !
 ! R5    R(3,29)                 1.43           estimate D2E/DX2                !
 ! R6    R(5,6)                  1.54           estimate D2E/DX2                !
 ! R7    R(5,10)                 1.54           estimate D2E/DX2                !
 ! R8    R(5,14)                 1.54           estimate D2E/DX2                !
 ! R9    R(5,29)                 1.43           estimate D2E/DX2                !
 ! R10   R(6,7)                  1.07           estimate D2E/DX2                !
 ! R11   R(6,8)                  1.07           estimate D2E/DX2                !
 ! R12   R(6,9)                  1.07           estimate D2E/DX2                !
 ! R13   R(10,11)                1.07           estimate D2E/DX2                !
 ! R14   R(10,12)                1.07           estimate D2E/DX2                !
 ! R15   R(10,13)                1.07           estimate D2E/DX2                !
 ! R16   R(14,15)                1.07           estimate D2E/DX2                !
 ! R17   R(14,16)                1.07           estimate D2E/DX2                !
 ! R18   R(14,17)                1.07           estimate D2E/DX2                !
 ! R19   R(18,19)                1.4014         estimate D2E/DX2                !
 ! R20   R(18,20)                1.4014         estimate D2E/DX2                !
 ! R21   R(19,21)                1.4014         estimate D2E/DX2                !
 ! R22   R(19,22)                1.07           estimate D2E/DX2                !
 ! R23   R(20,23)                1.4014         estimate D2E/DX2                !
 ! R24   R(20,24)                1.07           estimate D2E/DX2                !
 ! R25   R(21,25)                1.4014         estimate D2E/DX2                !
 ! R26   R(21,26)                1.07           estimate D2E/DX2                !
 ! R27   R(23,25)                1.4014         estimate D2E/DX2                !
 ! R28   R(23,27)                1.76           estimate D2E/DX2                !
 ! R29   R(25,28)                1.07           estimate D2E/DX2                !
 ! R30   R(29,30)                1.07           estimate D2E/DX2                !
 ! R31   R(29,31)                1.07           estimate D2E/DX2                !
 ! A1    A(2,1,3)              109.4714         estimate D2E/DX2                !
 ! A2    A(2,1,18)             109.4714         estimate D2E/DX2                !
 ! A3    A(3,1,18)             109.4709         estimate D2E/DX2                !
 ! A4    A(1,3,4)              119.9999         estimate D2E/DX2                !
 ! A5    A(1,3,29)             120.0003         estimate D2E/DX2                !
 ! A6    A(4,3,29)             119.9998         estimate D2E/DX2                !
 ! A7    A(6,5,10)             109.4713         estimate D2E/DX2                !
 ! A8    A(6,5,14)             109.4712         estimate D2E/DX2                !
 ! A9    A(6,5,29)             109.4711         estimate D2E/DX2                !
 ! A10   A(10,5,14)            109.4712         estimate D2E/DX2                !
 ! A11   A(10,5,29)            109.4712         estimate D2E/DX2                !
 ! A12   A(14,5,29)            109.4713         estimate D2E/DX2                !
 ! A13   A(5,6,7)              109.4712         estimate D2E/DX2                !
 ! A14   A(5,6,8)              109.4712         estimate D2E/DX2                !
 ! A15   A(5,6,9)              109.4713         estimate D2E/DX2                !
 ! A16   A(7,6,8)              109.4712         estimate D2E/DX2                !
 ! A17   A(7,6,9)              109.4712         estimate D2E/DX2                !
 ! A18   A(8,6,9)              109.4712         estimate D2E/DX2                !
 ! A19   A(5,10,11)            109.4712         estimate D2E/DX2                !
 ! A20   A(5,10,12)            109.4713         estimate D2E/DX2                !
 ! A21   A(5,10,13)            109.4712         estimate D2E/DX2                !
 ! A22   A(11,10,12)           109.4712         estimate D2E/DX2                !
 ! A23   A(11,10,13)           109.4712         estimate D2E/DX2                !
 ! A24   A(12,10,13)           109.4712         estimate D2E/DX2                !
 ! A25   A(5,14,15)            109.4712         estimate D2E/DX2                !
 ! A26   A(5,14,16)            109.4713         estimate D2E/DX2                !
 ! A27   A(5,14,17)            109.4712         estimate D2E/DX2                !
 ! A28   A(15,14,16)           109.4712         estimate D2E/DX2                !
 ! A29   A(15,14,17)           109.4712         estimate D2E/DX2                !
 ! A30   A(16,14,17)           109.4713         estimate D2E/DX2                !
 ! A31   A(1,18,19)            119.9997         estimate D2E/DX2                !
 ! A32   A(1,18,20)            120.0003         estimate D2E/DX2                !
 ! A33   A(19,18,20)           120.0            estimate D2E/DX2                !
 ! A34   A(18,19,21)           120.0            estimate D2E/DX2                !
 ! A35   A(18,19,22)           120.0            estimate D2E/DX2                !
 ! A36   A(21,19,22)           120.0            estimate D2E/DX2                !
 ! A37   A(18,20,23)           119.9999         estimate D2E/DX2                !
 ! A38   A(18,20,24)           120.0            estimate D2E/DX2                !
 ! A39   A(23,20,24)           120.0            estimate D2E/DX2                !
 ! A40   A(19,21,25)           120.0            estimate D2E/DX2                !
 ! A41   A(19,21,26)           120.0            estimate D2E/DX2                !
 ! A42   A(25,21,26)           120.0            estimate D2E/DX2                !
 ! A43   A(20,23,25)           120.0            estimate D2E/DX2                !
 ! A44   A(20,23,27)           120.0            estimate D2E/DX2                !
 ! A45   A(25,23,27)           120.0            estimate D2E/DX2                !
 ! A46   A(21,25,23)           120.0            estimate D2E/DX2                !
 ! A47   A(21,25,28)           120.0            estimate D2E/DX2                !
 ! A48   A(23,25,28)           120.0            estimate D2E/DX2                !
 ! A49   A(3,29,5)             109.4705         estimate D2E/DX2                !
 ! A50   A(3,29,30)            109.4862         estimate D2E/DX2                !
 ! A51   A(3,29,31)            109.4566         estimate D2E/DX2                !
 ! A52   A(5,29,30)            109.4566         estimate D2E/DX2                !
 ! A53   A(5,29,31)            109.4862         estimate D2E/DX2                !
 ! A54   A(30,29,31)           109.4712         estimate D2E/DX2                !
 ! D1    D(2,1,3,4)            149.999          estimate D2E/DX2                !
 ! D2    D(2,1,3,29)           -30.0012         estimate D2E/DX2                !
 ! D3    D(18,1,3,4)            29.9988         estimate D2E/DX2                !
 ! D4    D(18,1,3,29)         -150.0013         estimate D2E/DX2                !
 ! D5    D(2,1,18,19)          150.0005         estimate D2E/DX2                !
 ! D6    D(2,1,18,20)          -29.9997         estimate D2E/DX2                !
 ! D7    D(3,1,18,19)          -89.9994         estimate D2E/DX2                !
 ! D8    D(3,1,18,20)           90.0004         estimate D2E/DX2                !
 ! D9    D(1,3,29,5)          -150.0006         estimate D2E/DX2                !
 ! D10   D(1,3,29,30)           90.0085         estimate D2E/DX2                !
 ! D11   D(1,3,29,31)          -29.9917         estimate D2E/DX2                !
 ! D12   D(4,3,29,5)            29.9992         estimate D2E/DX2                !
 ! D13   D(4,3,29,30)          -89.9917         estimate D2E/DX2                !
 ! D14   D(4,3,29,31)          150.0081         estimate D2E/DX2                !
 ! D15   D(10,5,6,7)           180.0            estimate D2E/DX2                !
 ! D16   D(10,5,6,8)           -60.0            estimate D2E/DX2                !
 ! D17   D(10,5,6,9)            60.0            estimate D2E/DX2                !
 ! D18   D(14,5,6,7)            60.0            estimate D2E/DX2                !
 ! D19   D(14,5,6,8)           179.9999         estimate D2E/DX2                !
 ! D20   D(14,5,6,9)           -60.0            estimate D2E/DX2                !
 ! D21   D(29,5,6,7)           -60.0001         estimate D2E/DX2                !
 ! D22   D(29,5,6,8)            59.9999         estimate D2E/DX2                !
 ! D23   D(29,5,6,9)           179.9999         estimate D2E/DX2                !
 ! D24   D(6,5,10,11)          179.9999         estimate D2E/DX2                !
 ! D25   D(6,5,10,12)          -60.0            estimate D2E/DX2                !
 ! D26   D(6,5,10,13)           59.9999         estimate D2E/DX2                !
 ! D27   D(14,5,10,11)         -60.0001         estimate D2E/DX2                !
 ! D28   D(14,5,10,12)          60.0            estimate D2E/DX2                !
 ! D29   D(14,5,10,13)         179.9999         estimate D2E/DX2                !
 ! D30   D(29,5,10,11)          60.0            estimate D2E/DX2                !
 ! D31   D(29,5,10,12)        -179.9999         estimate D2E/DX2                !
 ! D32   D(29,5,10,13)         -59.9999         estimate D2E/DX2                !
 ! D33   D(6,5,14,15)           60.0            estimate D2E/DX2                !
 ! D34   D(6,5,14,16)          180.0            estimate D2E/DX2                !
 ! D35   D(6,5,14,17)          -60.0            estimate D2E/DX2                !
 ! D36   D(10,5,14,15)         -60.0001         estimate D2E/DX2                !
 ! D37   D(10,5,14,16)          59.9999         estimate D2E/DX2                !
 ! D38   D(10,5,14,17)         180.0            estimate D2E/DX2                !
 ! D39   D(29,5,14,15)         179.9999         estimate D2E/DX2                !
 ! D40   D(29,5,14,16)         -60.0001         estimate D2E/DX2                !
 ! D41   D(29,5,14,17)          60.0            estimate D2E/DX2                !
 ! D42   D(6,5,29,3)           -60.0005         estimate D2E/DX2                !
 ! D43   D(6,5,29,30)           60.0084         estimate D2E/DX2                !
 ! D44   D(6,5,29,31)         -179.9914         estimate D2E/DX2                !
 ! D45   D(10,5,29,3)           59.9994         estimate D2E/DX2                !
 ! D46   D(10,5,29,30)        -179.9917         estimate D2E/DX2                !
 ! D47   D(10,5,29,31)         -59.9914         estimate D2E/DX2                !
 ! D48   D(14,5,29,3)          179.9994         estimate D2E/DX2                !
 ! D49   D(14,5,29,30)         -59.9916         estimate D2E/DX2                !
 ! D50   D(14,5,29,31)          60.0086         estimate D2E/DX2                !
 ! D51   D(1,18,19,21)         179.9995         estimate D2E/DX2                !
 ! D52   D(1,18,19,22)          -0.0003         estimate D2E/DX2                !
 ! D53   D(20,18,19,21)         -0.0003         estimate D2E/DX2                !
 ! D54   D(20,18,19,22)        179.9999         estimate D2E/DX2                !
 ! D55   D(1,18,20,23)        -179.9996         estimate D2E/DX2                !
 ! D56   D(1,18,20,24)           0.0003         estimate D2E/DX2                !
 ! D57   D(19,18,20,23)          0.0002         estimate D2E/DX2                !
 ! D58   D(19,18,20,24)       -179.9999         estimate D2E/DX2                !
 ! D59   D(18,19,21,25)          0.0001         estimate D2E/DX2                !
 ! D60   D(18,19,21,26)       -179.9998         estimate D2E/DX2                !
 ! D61   D(22,19,21,25)        179.9999         estimate D2E/DX2                !
 ! D62   D(22,19,21,26)          0.0001         estimate D2E/DX2                !
 ! D63   D(18,20,23,25)          0.0            estimate D2E/DX2                !
 ! D64   D(18,20,23,27)       -179.9999         estimate D2E/DX2                !
 ! D65   D(24,20,23,25)       -179.9998         estimate D2E/DX2                !
 ! D66   D(24,20,23,27)          0.0002         estimate D2E/DX2                !
 ! D67   D(19,21,25,23)          0.0002         estimate D2E/DX2                !
 ! D68   D(19,21,25,28)       -179.9998         estimate D2E/DX2                !
 ! D69   D(26,21,25,23)       -179.9999         estimate D2E/DX2                !
 ! D70   D(26,21,25,28)          0.0001         estimate D2E/DX2                !
 ! D71   D(20,23,25,21)         -0.0002         estimate D2E/DX2                !
 ! D72   D(20,23,25,28)        179.9998         estimate D2E/DX2                !
 ! D73   D(27,23,25,21)        179.9997         estimate D2E/DX2                !
 ! D74   D(27,23,25,28)         -0.0003         estimate D2E/DX2                !
 --------------------------------------------------------------------------------
 Trust Radius=3.00D-01 FncErr=1.00D-07 GrdErr=1.00D-06
 Number of steps in this run=    169 maximum allowed number of steps=    186.
 GradGradGradGradGradGradGradGradGradGradGradGradGradGradGradGradGradGrad

                          Input orientation:                          
 ---------------------------------------------------------------------
 Center     Atomic      Atomic             Coordinates (Angstroms)
 Number     Number       Type             X           Y           Z
 ---------------------------------------------------------------------
      1          7           0        3.073833   -3.187808    1.370312
      2          1           0        3.034750   -3.696003    2.230667
      3          6           0        2.826410   -4.104474    0.248081
      4          8           0        2.281473   -3.679085   -0.803422
      5          6           0        3.532217   -5.982576   -0.946735
      6          6           0        2.306626   -5.855469   -1.870516
      7          1           0        1.493483   -6.419728   -1.463934
      8          1           0        2.023358   -4.826538   -1.947711
      9          1           0        2.551490   -6.231826   -2.841750
     10          6           0        4.702536   -5.170465   -1.531909
     11          1           0        5.554082   -5.258779   -0.890060
     12          1           0        4.947402   -5.546823   -2.503142
     13          1           0        4.419268   -4.141534   -1.609105
     14          6           0        3.939910   -7.463467   -0.835631
     15          1           0        4.184774   -7.839825   -1.806865
     16          1           0        4.791457   -7.551783   -0.193783
     17          1           0        3.126766   -8.027726   -0.429048
     18          6           0        2.049366   -2.133616    1.376927
     19          6           0        2.262178   -0.945271    0.665262
     20          6           0        0.859898   -2.316963    2.094891
     21          6           0        1.285519    0.059726    0.671555
     22          1           0        3.170364   -0.805282    0.117083
     23          6           0       -0.116761   -1.311965    2.101184
     24          1           0        0.697413   -3.224291    2.638264
     25          6           0        0.096049   -0.123622    1.389514
     26          1           0        1.448005    0.967052    0.128180
     27         17           0       -1.610598   -1.542225    3.002866
     28          1           0       -0.649653    0.643715    1.394316
     29          6           0        3.204967   -5.479590    0.351268
     30          1           0        2.391911   -6.044095    0.757686
     31          1           0        4.056412   -5.567654    0.993285
 ---------------------------------------------------------------------
                    Distance matrix (angstroms):
                    1          2          3          4          5
     1  N    0.000000
     2  H    1.000000   0.000000
     3  C    1.469999   2.034921   0.000000
     4  O    2.365229   3.126246   1.258400   0.000000
     5  C    3.659173   3.946109   2.335169   2.625065   0.000000
     6  C    4.267082   4.691819   2.797251   2.424039   1.540000
     7  H    4.579930   4.841927   3.173025   2.927170   2.148262
     8  H    3.846845   4.445208   2.446992   1.640935   2.148263
     9  H    5.223060   5.691517   3.761418   3.277831   2.148263
    10  C    3.873821   4.371787   2.797239   2.935379   1.540000
    11  H    3.943328   4.304444   3.173007   3.634956   2.148263
    12  H    4.907021   5.430720   3.761410   3.672147   2.148263
    13  H    3.405395   4.106000   2.446980   2.330912   2.148262
    14  C    4.888510   4.941183   3.700966   4.131948   1.539999
    15  H    5.741943   5.898770   4.474461   4.684144   2.148262
    16  H    4.943774   4.881702   3.992567   4.655047   2.148263
    17  H    5.163845   5.083933   3.992571   4.445824   2.148262
    18  C    1.469999   2.034922   2.400494   2.682586   4.734209
    19  C    2.486937   3.257896   3.236196   3.103409   5.439299
    20  C    2.486944   2.578792   3.236212   3.503779   5.461638
    21  C    3.772639   4.426753   4.460295   4.140796   6.646497
    22  H    2.693759   3.583560   3.319659   3.145823   5.297831
    23  C    3.772645   3.953786   4.460309   4.448766   6.664792
    24  H    2.693772   2.419048   3.319688   3.815925   5.338208
    25  C    4.272799   4.701639   4.960336   4.714485   7.182803
    26  H    4.631315   5.355586   5.256877   4.811356   7.334624
    27  Cl   5.226574   5.178254   5.817302   5.848266   7.859046
    28  H    5.342799   5.753909   5.995179   5.666406   8.177792
    29  C    2.511556   2.596594   1.429999   2.329800   1.430000
    30  H    2.999784   2.845427   2.051978   2.835934   2.051617
    31  H    2.602168   2.465357   2.051616   3.153610   2.051979
                    6          7          8          9         10
     6  C    0.000000
     7  H    1.070000   0.000000
     8  H    1.070000   1.747302   0.000000
     9  H    1.070000   1.747302   1.747302   0.000000
    10  C    2.514810   3.444314   2.732979   2.732978   0.000000
    11  H    3.444314   4.262112   3.710993   3.710994   1.070000
    12  H    2.732979   3.710993   3.062245   2.514812   1.070000
    13  H    2.732977   3.710992   2.514810   3.062242   1.070000
    14  C    2.514809   2.732977   3.444313   2.732978   2.514809
    15  H    2.732976   3.062241   3.710991   2.514809   2.732977
    16  H    3.444314   3.710992   4.262112   3.710993   2.732977
    17  H    2.732976   2.514808   3.710991   3.062243   3.444313
    18  C    4.946135   5.172064   4.278518   5.902939   4.972231
    19  C    5.526499   5.924022   4.684965   6.350630   5.351184
    20  C    5.508039   5.468028   4.898391   6.523653   6.005165
    21  C    6.518766   6.825458   5.592900   7.316394   6.624662
    22  H    5.495542   6.069065   4.663635   6.211689   4.911369
    23  C    6.503125   6.433676   5.772858   7.467074   7.163310
    24  H    5.462761   5.260472   5.035523   6.520232   6.100733
    25  C    6.954748   7.052371   6.080215   7.825787   7.431356
    26  H    7.160922   7.556548   6.181103   7.865241   7.142617
    27  Cl   7.595958   7.306001   6.964235   8.571749   8.578110
    28  H    7.850994   7.915482   6.945344   8.687039   8.426945
    29  C    2.425825   2.666082   2.666080   3.344885   2.425825
    30  H    2.636342   2.425668   2.989557   3.607859   3.368154
    31  H    3.368374   3.651377   3.651304   4.172938   2.636634
                   11         12         13         14         15
    11  H    0.000000
    12  H    1.747302   0.000000
    13  H    1.747302   1.747302   0.000000
    14  C    2.732977   2.732977   3.444313   0.000000
    15  H    3.062244   2.514809   3.710991   1.070000   0.000000
    16  H    2.514809   3.062242   3.710992   1.070000   1.747303
    17  H    3.710992   3.710992   4.262110   1.070000   1.747303
    18  C    5.214297   5.924822   4.308660   6.072633   6.874395
    19  C    5.644644   6.198668   4.476815   6.895966   7.572494
    20  C    6.292818   6.948495   5.451399   6.675397   7.535283
    21  C    6.996124   7.410902   5.715975   8.118856   8.772180
    22  H    5.150736   5.701373   3.958543   6.769882   7.363111
    23  C    7.528834   8.048577   6.507554   7.932367   8.740080
    24  H    6.338410   7.063329   5.721336   6.368072   7.295479
    25  C    7.833034   8.252242   6.620087   8.579037   9.299156
    26  H    7.527127   7.848579   6.159887   8.843765   9.423130
    27  Cl   8.961042   9.453057   8.024087   8.977934   9.817312
    28  H    8.862513   9.210861   7.590329   9.579309  10.275685
    29  C    2.666082   3.344885   2.666081   2.425827   3.344887
    30  H    3.651179   4.172626   3.651248   2.636205   3.607759
    31  H    2.425986   3.608227   2.989635   2.636781   3.608334
                   16         17         18         19         20
    16  H    0.000000
    17  H    1.747303   0.000000
    18  C    6.272377   6.258024   0.000000
    19  C    7.126093   7.218462   1.401399   0.000000
    20  C    6.935309   6.642421   1.401400   2.427296   0.000000
    21  C    8.424694   8.367101   2.427295   1.401399   2.802800
    22  H    6.945492   7.243194   2.146699   1.070000   3.396345
    23  C    8.263946   7.875531   2.427296   2.802800   1.401401
    24  H    6.596125   6.195413   2.146700   3.396345   1.070000
    25  C    8.929236   8.658365   2.802800   2.427295   2.427297
    26  H    9.157122   9.167048   3.396344   2.146699   3.872800
    27  Cl   9.344499   8.733978   4.048304   4.562800   2.743718
    28  H    9.964633   9.632232   3.872800   3.396344   3.396346
    29  C    2.666086   2.666084   3.685503   4.641928   4.306016
    30  H    2.989354   2.425519   3.973995   5.101311   4.245785
    31  H    2.426147   2.989854   3.996001   4.969235   4.690226
                   21         22         23         24         25
    21  C    0.000000
    22  H    2.146699   0.000000
    23  C    2.427296   3.872800   0.000000
    24  H    3.872800   4.280590   2.146701   0.000000
    25  C    1.401400   3.396344   1.401400   3.396346   0.000000
    26  H    1.070000   2.471399   3.396345   4.942800   2.146699
    27  Cl   4.048303   5.632800   1.760000   2.879096   2.743718
    28  H    2.146699   4.280589   2.146700   4.280592   1.070000
    29  C    5.871191   4.680299   5.609383   4.074868   6.279309
    30  H    6.203882   5.334934   5.521909   3.789352   6.381394
    31  H    6.280825   4.922703   6.062483   4.413636   6.743809
                   26         27         28         29         30
    26  H    0.000000
    27  Cl   4.890332   0.000000
    28  H    2.471400   2.879095   0.000000
    29  C    6.685498   6.761914   7.310329   0.000000
    30  H    7.102353   6.428666   7.374497   1.070000   0.000000
    31  H    7.089046   7.235848   7.803139   1.070000   1.747303
                   31
    31  H    0.000000
 Stoichiometry    C12H16ClNO
 Framework group  C1[X(C12H16ClNO)]
 Deg. of freedom    87
 Full point group                 C1      NOp   1
 Largest Abelian subgroup         C1      NOp   1
 Largest concise Abelian subgroup C1      NOp   1
                         Standard orientation:                         
 ---------------------------------------------------------------------
 Center     Atomic      Atomic             Coordinates (Angstroms)
 Number     Number       Type             X           Y           Z
 ---------------------------------------------------------------------
      1          7           0       -0.260408    0.493275   -1.348846
      2          1           0       -0.207269   -0.227838   -2.039623
      3          6           0       -1.262273    0.129280   -0.336585
      4          8           0       -1.131007    0.527013    0.850069
      5          6           0       -3.500895   -0.343143    0.130747
      6          6           0       -3.138336   -0.603078    1.604716
      7          1           0       -2.893115   -1.636442    1.734808
      8          1           0       -2.297460    0.000040    1.876886
      9          1           0       -3.972524   -0.353435    2.226575
     10          6           0       -3.853831    1.144129   -0.056489
     11          1           0       -4.105737    1.324733   -1.080611
     12          1           0       -4.688020    1.393772    0.565368
     13          1           0       -3.012955    1.747247    0.215682
     14          6           0       -4.711126   -1.211182   -0.260975
     15          1           0       -5.545315   -0.961540    0.360884
     16          1           0       -4.963035   -1.030578   -1.285096
     17          1           0       -4.465904   -2.244546   -0.130883
     18          6           0        1.051377    0.652530   -0.704831
     19          6           0        1.440973    1.903824   -0.208447
     20          6           0        1.912347   -0.446937   -0.587249
     21          6           0        2.691535    2.055653    0.405524
     22          1           0        0.783603    2.743292   -0.298226
     23          6           0        3.162912   -0.295109    0.026722
     24          1           0        1.614883   -1.402329   -0.966250
     25          6           0        3.552504    0.956186    0.523111
     26          1           0        2.988998    3.011044    0.784527
     27         17           0        4.244195   -1.675913    0.174391
     28          1           0        4.507336    1.072110    0.991895
     29          6           0       -2.386043   -0.676775   -0.700333
     30          1           0       -2.141116   -1.710200   -0.570170
     31          1           0       -2.637644   -0.496115   -1.724520
 ---------------------------------------------------------------------
 Rotational constants (GHZ):      1.1976200      0.2296355      0.2117784
 Standard basis: 6-311+G(d,p) (5D, 7F)
 There are   449 symmetry adapted cartesian basis functions of A   symmetry.
 There are   434 symmetry adapted basis functions of A   symmetry.
   434 basis functions,   685 primitive gaussians,   449 cartesian basis functions
    60 alpha electrons       60 beta electrons
       nuclear repulsion energy      1075.8092101002 Hartrees.
 NAtoms=   31 NActive=   31 NUniq=   31 SFac= 1.00D+00 NAtFMM=   60 NAOKFM=F Big=F
 Integral buffers will be    131072 words long.
 Raffenetti 2 integral format.
 Two-electron integral symmetry is turned on.
 One-electron integrals computed using PRISM.
 NBasis=   434 RedAO= T EigKep=  1.82D-06  NBF=   434
 NBsUse=   434 1.00D-06 EigRej= -1.00D+00 NBFU=   434
 ExpMin= 4.38D-02 ExpMax= 1.06D+05 ExpMxC= 3.62D+03 IAcc=2 IRadAn=         4 AccDes= 0.00D+00
 Harris functional with IExCor=  402 and IRadAn=       4 diagonalized for initial guess.
 HarFok:  IExCor=  402 AccDes= 0.00D+00 IRadAn=         4 IDoV= 1 UseB2=F ITyADJ=14
 ICtDFT=  3500011 ScaDFX=  1.000000  1.000000  1.000000  1.000000
 FoFCou: FMM=F IPFlag=           0 FMFlag=      100000 FMFlg1=           0
         NFxFlg=           0 DoJE=T BraDBF=F KetDBF=T FulRan=T
         wScrn=  0.000000 ICntrl=     500 IOpCl=  0 I1Cent=   200000004 NGrid=           0
         NMat0=    1 NMatS0=      1 NMatT0=    0 NMatD0=    1 NMtDS0=    0 NMtDT0=    0
 Petite list used in FoFCou.
 Requested convergence on RMS density matrix=1.00D-08 within 128 cycles.
 Requested convergence on MAX density matrix=1.00D-06.
 Requested convergence on             energy=1.00D-06.
 No special actions if energy rises.
 SCF Done:  E(RB3LYP) =  -1057.24071841     A.U. after   16 cycles
            NFock= 16  Conv=0.69D-08     -V/T= 2.0029

 **********************************************************************

            Population analysis using the SCF density.

 **********************************************************************

 Orbital symmetries:
       Occupied  (A) (A) (A) (A) (A) (A) (A) (A) (A) (A) (A) (A)
                 (A) (A) (A) (A) (A) (A) (A) (A) (A) (A) (A) (A)
                 (A) (A) (A) (A) (A) (A) (A) (A) (A) (A) (A) (A)
                 (A) (A) (A) (A) (A) (A) (A) (A) (A) (A) (A) (A)
                 (A) (A) (A) (A) (A) (A) (A) (A) (A) (A) (A) (A)
       Virtual   (A) (A) (A) (A) (A) (A) (A) (A) (A) (A) (A) (A)
                 (A) (A) (A) (A) (A) (A) (A) (A) (A) (A) (A) (A)
                 (A) (A) (A) (A) (A) (A) (A) (A) (A) (A) (A) (A)
                 (A) (A) (A) (A) (A) (A) (A) (A) (A) (A) (A) (A)
                 (A) (A) (A) (A) (A) (A) (A) (A) (A) (A) (A) (A)
                 (A) (A) (A) (A) (A) (A) (A) (A) (A) (A) (A) (A)
                 (A) (A) (A) (A) (A) (A) (A) (A) (A) (A) (A) (A)
                 (A) (A) (A) (A) (A) (A) (A) (A) (A) (A) (A) (A)
                 (A) (A) (A) (A) (A) (A) (A) (A) (A) (A) (A) (A)
                 (A) (A) (A) (A) (A) (A) (A) (A) (A) (A) (A) (A)
                 (A) (A) (A) (A) (A) (A) (A) (A) (A) (A) (A) (A)
                 (A) (A) (A) (A) (A) (A) (A) (A) (A) (A) (A) (A)
                 (A) (A) (A) (A) (A) (A) (A) (A) (A) (A) (A) (A)
                 (A) (A) (A) (A) (A) (A) (A) (A) (A) (A) (A) (A)
                 (A) (A) (A) (A) (A) (A) (A) (A) (A) (A) (A) (A)
                 (A) (A) (A) (A) (A) (A) (A) (A) (A) (A) (A) (A)
                 (A) (A) (A) (A) (A) (A) (A) (A) (A) (A) (A) (A)
                 (A) (A) (A) (A) (A) (A) (A) (A) (A) (A) (A) (A)
                 (A) (A) (A) (A) (A) (A) (A) (A) (A) (A) (A) (A)
                 (A) (A) (A) (A) (A) (A) (A) (A) (A) (A) (A) (A)
                 (A) (A) (A) (A) (A) (A) (A) (A) (A) (A) (A) (A)
                 (A) (A) (A) (A) (A) (A) (A) (A) (A) (A) (A) (A)
                 (A) (A) (A) (A) (A) (A) (A) (A) (A) (A) (A) (A)
                 (A) (A) (A) (A) (A) (A) (A) (A) (A) (A) (A) (A)
                 (A) (A) (A) (A) (A) (A) (A) (A) (A) (A) (A) (A)
                 (A) (A) (A) (A) (A) (A) (A) (A) (A) (A) (A) (A)
                 (A) (A) (A) (A) (A) (A) (A) (A) (A) (A) (A) (A)
                 (A) (A) (A) (A) (A) (A) (A) (A) (A) (A) (A) (A)
                 (A) (A) (A) (A) (A) (A) (A) (A) (A) (A) (A) (A)
                 (A) (A) (A) (A) (A) (A) (A) (A) (A) (A) (A) (A)
                 (A) (A) (A) (A) (A) (A) (A) (A) (A) (A) (A) (A)
                 (A) (A)
 The electronic state is 1-A.
 Alpha  occ. eigenvalues -- -101.56179 -19.11047 -14.36120 -10.29942 -10.25158
 Alpha  occ. eigenvalues --  -10.23673 -10.20052 -10.19565 -10.19509 -10.18990
 Alpha  occ. eigenvalues --  -10.17974 -10.17679 -10.15301 -10.14722 -10.12006
 Alpha  occ. eigenvalues --   -9.47618  -7.24083  -7.23098  -7.23069  -1.05265
 Alpha  occ. eigenvalues --   -0.94266  -0.89616  -0.85870  -0.84047  -0.76935
 Alpha  occ. eigenvalues --   -0.75187  -0.73586  -0.69714  -0.68513  -0.63592
 Alpha  occ. eigenvalues --   -0.62198  -0.58584  -0.55846  -0.53757  -0.52394
 Alpha  occ. eigenvalues --   -0.50435  -0.49836  -0.48275  -0.46468  -0.45399
 Alpha  occ. eigenvalues --   -0.45238  -0.44613  -0.43715  -0.40954  -0.40648
 Alpha  occ. eigenvalues --   -0.39252  -0.38893  -0.38617  -0.37866  -0.36874
 Alpha  occ. eigenvalues --   -0.36299  -0.34889  -0.33872  -0.33067  -0.32567
 Alpha  occ. eigenvalues --   -0.31929  -0.30493  -0.27160  -0.25569  -0.24963
 Alpha virt. eigenvalues --   -0.04101  -0.03194  -0.03078  -0.01242   0.00279
 Alpha virt. eigenvalues --    0.00998   0.01152   0.02078   0.02838   0.03344
 Alpha virt. eigenvalues --    0.03745   0.04042   0.04450   0.05152   0.05608
 Alpha virt. eigenvalues --    0.05904   0.06291   0.06651   0.07564   0.07629
 Alpha virt. eigenvalues --    0.08191   0.08571   0.08755   0.09615   0.10261
 Alpha virt. eigenvalues --    0.10606   0.10653   0.11345   0.11692   0.11714
 Alpha virt. eigenvalues --    0.12123   0.12549   0.13331   0.13538   0.13987
 Alpha virt. eigenvalues --    0.14596   0.14928   0.15477   0.15665   0.15873
 Alpha virt. eigenvalues --    0.16362   0.17243   0.17541   0.17947   0.18267
 Alpha virt. eigenvalues --    0.18394   0.18930   0.19341   0.19653   0.20005
 Alpha virt. eigenvalues --    0.20259   0.21015   0.21218   0.21441   0.21762
 Alpha virt. eigenvalues --    0.22305   0.22362   0.22488   0.23276   0.23546
 Alpha virt. eigenvalues --    0.23774   0.24121   0.24732   0.24896   0.25403
 Alpha virt. eigenvalues --    0.25873   0.25910   0.26539   0.27129   0.27465
 Alpha virt. eigenvalues --    0.27658   0.27789   0.28122   0.28705   0.29145
 Alpha virt. eigenvalues --    0.29745   0.30116   0.30775   0.31405   0.31916
 Alpha virt. eigenvalues --    0.32518   0.33418   0.33870   0.34389   0.35150
 Alpha virt. eigenvalues --    0.36001   0.36843   0.37374   0.38257   0.39655
 Alpha virt. eigenvalues --    0.41544   0.42209   0.43976   0.44546   0.45366
 Alpha virt. eigenvalues --    0.46216   0.46607   0.46942   0.47215   0.48152
 Alpha virt. eigenvalues --    0.48867   0.49666   0.51068   0.52317   0.53252
 Alpha virt. eigenvalues --    0.53884   0.54619   0.55103   0.55595   0.56832
 Alpha virt. eigenvalues --    0.58051   0.58568   0.58938   0.60400   0.61208
 Alpha virt. eigenvalues --    0.62409   0.63268   0.64354   0.64506   0.64879
 Alpha virt. eigenvalues --    0.65003   0.66263   0.66984   0.67290   0.67817
 Alpha virt. eigenvalues --    0.67971   0.68680   0.69642   0.69883   0.70716
 Alpha virt. eigenvalues --    0.70846   0.71474   0.72395   0.73208   0.73673
 Alpha virt. eigenvalues --    0.74830   0.75031   0.76548   0.77169   0.78109
 Alpha virt. eigenvalues --    0.79288   0.79791   0.80576   0.81028   0.82091
 Alpha virt. eigenvalues --    0.82424   0.83687   0.84401   0.85627   0.86297
 Alpha virt. eigenvalues --    0.86931   0.87815   0.88536   0.89118   0.89674
 Alpha virt. eigenvalues --    0.90495   0.92349   0.94321   0.95277   0.95676
 Alpha virt. eigenvalues --    0.97591   0.99675   1.01250   1.02362   1.03543
 Alpha virt. eigenvalues --    1.04192   1.04370   1.06122   1.06734   1.09264
 Alpha virt. eigenvalues --    1.10346   1.11793   1.13026   1.15251   1.16587
 Alpha virt. eigenvalues --    1.17722   1.19210   1.22024   1.22697   1.25028
 Alpha virt. eigenvalues --    1.26701   1.28180   1.29957   1.34428   1.36750
 Alpha virt. eigenvalues --    1.38020   1.41574   1.42733   1.43553   1.45670
 Alpha virt. eigenvalues --    1.46642   1.47262   1.48067   1.48942   1.50377
 Alpha virt. eigenvalues --    1.50913   1.51185   1.52144   1.54238   1.55115
 Alpha virt. eigenvalues --    1.55815   1.56404   1.57797   1.58805   1.59511
 Alpha virt. eigenvalues --    1.60174   1.61603   1.63318   1.63790   1.65069
 Alpha virt. eigenvalues --    1.65237   1.65736   1.67463   1.67780   1.68856
 Alpha virt. eigenvalues --    1.69424   1.70638   1.72479   1.74150   1.75518
 Alpha virt. eigenvalues --    1.76206   1.76390   1.77055   1.79616   1.80202
 Alpha virt. eigenvalues --    1.84838   1.85631   1.86882   1.87757   1.88456
 Alpha virt. eigenvalues --    1.89177   1.91013   1.91163   1.92718   1.94730
 Alpha virt. eigenvalues --    1.96233   1.96296   1.97615   1.98553   1.99326
 Alpha virt. eigenvalues --    2.00446   2.02095   2.02770   2.03000   2.04270
 Alpha virt. eigenvalues --    2.06235   2.07024   2.09738   2.12682   2.13892
 Alpha virt. eigenvalues --    2.16352   2.19169   2.21014   2.22686   2.23287
 Alpha virt. eigenvalues --    2.25587   2.26730   2.28732   2.30272   2.31093
 Alpha virt. eigenvalues --    2.33818   2.39201   2.39632   2.41930   2.44399
 Alpha virt. eigenvalues --    2.46315   2.46605   2.48042   2.48672   2.51953
 Alpha virt. eigenvalues --    2.52838   2.54484   2.54727   2.55954   2.57050
 Alpha virt. eigenvalues --    2.57511   2.58574   2.59015   2.60035   2.61037
 Alpha virt. eigenvalues --    2.62302   2.63232   2.63692   2.63793   2.66004
 Alpha virt. eigenvalues --    2.66605   2.68712   2.69749   2.70693   2.72012
 Alpha virt. eigenvalues --    2.74003   2.75139   2.75422   2.76538   2.77262
 Alpha virt. eigenvalues --    2.78035   2.79861   2.80470   2.81672   2.82221
 Alpha virt. eigenvalues --    2.83913   2.84886   2.86331   2.87576   2.88966
 Alpha virt. eigenvalues --    2.91638   2.92607   2.94488   2.96331   2.99902
 Alpha virt. eigenvalues --    3.03932   3.07886   3.11723   3.13322   3.14331
 Alpha virt. eigenvalues --    3.17314   3.19532   3.19854   3.22248   3.26243
 Alpha virt. eigenvalues --    3.27992   3.31108   3.33053   3.35071   3.37231
 Alpha virt. eigenvalues --    3.38500   3.44028   3.49941   3.53021   3.59532
 Alpha virt. eigenvalues --    3.73828   3.75659   3.81310   3.83304   3.84542
 Alpha virt. eigenvalues --    3.85010   3.88029   3.88906   3.92899   3.95738
 Alpha virt. eigenvalues --    3.95859   4.01963   4.11597   4.13718   4.18768
 Alpha virt. eigenvalues --    4.24524   4.33666   4.34020   4.42618   4.80579
 Alpha virt. eigenvalues --    4.82839   4.89504   5.13432   5.36597   5.77192
 Alpha virt. eigenvalues --    9.77460  23.54236  23.77298  23.87880  23.89761
 Alpha virt. eigenvalues --   23.93084  24.01301  24.03440  24.04233  24.04939
 Alpha virt. eigenvalues --   24.07241  24.12249  24.14549  25.82810  26.12058
 Alpha virt. eigenvalues --   26.61160  35.56898  50.01005 215.76551
          Condensed to atoms (all electrons):
               1          2          3          4          5          6
     1  N    7.677768   0.228885  -0.650196  -0.188781  -0.032927  -0.090011
     2  H    0.228885   0.469264  -0.066007   0.007175  -0.010970   0.007402
     3  C   -0.650196  -0.066007  20.267013  -0.000713   2.218026   0.610766
     4  O   -0.188781   0.007175  -0.000713   8.095007   0.019241  -0.189208
     5  C   -0.032927  -0.010970   2.218026   0.019241   7.067591   0.361115
     6  C   -0.090011   0.007402   0.610766  -0.189208   0.361115   6.004967
     7  H    0.001083  -0.000050  -0.091572   0.003215   0.024587   0.307699
     8  H   -0.009397   0.000067   0.134416  -0.055373  -0.008921   0.479899
     9  H    0.001309  -0.000016   0.037353   0.009844  -0.060563   0.415018
    10  C    0.036346  -0.000937   0.801900  -0.077657   0.347035  -0.448354
    11  H   -0.002649   0.000094  -0.065768   0.000790  -0.002173   0.026155
    12  H   -0.000756   0.000017   0.043585  -0.001042  -0.039452  -0.014609
    13  H    0.001390  -0.000224  -0.058170   0.007378  -0.031515   0.011122
    14  C    0.021967  -0.001768  -2.088292   0.054053  -0.838131  -0.268608
    15  H    0.000170  -0.000005  -0.012554  -0.000313  -0.099540  -0.026905
    16  H   -0.000268  -0.000016   0.021953  -0.000218   0.031840   0.026533
    17  H    0.000178   0.000004   0.006655  -0.000094   0.017559  -0.028961
    18  C   -0.959827   0.166424   1.619950   0.121146  -0.158579   0.103900
    19  C   -0.079507   0.079058   0.233100  -0.044752  -0.012142   0.020578
    20  C    0.329776  -0.179947  -0.331401  -0.029458   0.125208  -0.069745
    21  C    0.149310  -0.017932  -0.086541  -0.075113   0.004061  -0.025080
    22  H   -0.001837   0.000035   0.000838  -0.003217  -0.001632   0.000315
    23  C    0.371417  -0.027311  -0.536505  -0.005305  -0.067456   0.007135
    24  H   -0.023518   0.002361   0.033277   0.000440  -0.001253   0.001684
    25  C   -0.064039   0.001464   0.184072   0.017939  -0.003647   0.018202
    26  H   -0.000874   0.000022   0.001498  -0.000122  -0.000003   0.000094
    27  Cl   0.014262  -0.000949  -0.021019   0.000817  -0.001087  -0.001705
    28  H    0.000037  -0.000002   0.000222  -0.000022   0.000000  -0.000012
    29  C    0.243281   0.123971 -16.294327   0.475558  -3.057160  -0.790670
    30  H    0.000623  -0.003151  -0.052617  -0.003474   0.001755  -0.011211
    31  H   -0.024852   0.006481   0.214670   0.002559   0.046357   0.009279
               7          8          9         10         11         12
     1  N    0.001083  -0.009397   0.001309   0.036346  -0.002649  -0.000756
     2  H   -0.000050   0.000067  -0.000016  -0.000937   0.000094   0.000017
     3  C   -0.091572   0.134416   0.037353   0.801900  -0.065768   0.043585
     4  O    0.003215  -0.055373   0.009844  -0.077657   0.000790  -0.001042
     5  C    0.024587  -0.008921  -0.060563   0.347035  -0.002173  -0.039452
     6  C    0.307699   0.479899   0.415018  -0.448354   0.026155  -0.014609
     7  H    0.562003  -0.023744  -0.026684   0.025882  -0.000738   0.000142
     8  H   -0.023744   0.489945  -0.030732  -0.004886  -0.000009  -0.000311
     9  H   -0.026684  -0.030732   0.561098  -0.008810   0.000034   0.001979
    10  C    0.025882  -0.004886  -0.008810   5.896532   0.322125   0.422686
    11  H   -0.000738  -0.000009   0.000034   0.322125   0.554683  -0.025406
    12  H    0.000142  -0.000311   0.001979   0.422686  -0.025406   0.526272
    13  H    0.000082   0.001178  -0.001394   0.398972  -0.027003  -0.022553
    14  C    0.023263   0.011806  -0.043047  -0.323320   0.036017  -0.025292
    15  H   -0.000643   0.000180   0.002096  -0.018899  -0.000658   0.002119
    16  H   -0.000108  -0.000433   0.000143  -0.028900   0.002399  -0.000475
    17  H    0.001550   0.000160  -0.000292   0.032202  -0.000044   0.000021
    18  C   -0.002180   0.003689   0.002484   0.122082  -0.004181   0.002036
    19  C   -0.000587   0.000811  -0.000504   0.048025   0.000345  -0.000581
    20  C    0.000222  -0.001588   0.000045  -0.086470   0.000126  -0.000033
    21  C    0.000008   0.001309   0.000217   0.036069  -0.000351  -0.000126
    22  H   -0.000001  -0.000011   0.000001   0.001126  -0.000004   0.000000
    23  C   -0.000089  -0.001250   0.000034  -0.002473  -0.000001   0.000000
    24  H   -0.000010  -0.000017   0.000000  -0.000021   0.000000   0.000000
    25  C   -0.000070  -0.000207  -0.000076  -0.008944   0.000056   0.000004
    26  H    0.000000  -0.000002   0.000000  -0.000073   0.000000   0.000000
    27  Cl   0.000003   0.000033   0.000001   0.000623  -0.000001   0.000000
    28  H    0.000000   0.000000   0.000000   0.000008   0.000000   0.000000
    29  C    0.076497  -0.167899   0.019799  -1.089747   0.053086  -0.009027
    30  H    0.001521   0.000126  -0.000010   0.002857   0.000048  -0.000542
    31  H   -0.000287   0.000221  -0.000580   0.016003   0.002594   0.000005
              13         14         15         16         17         18
     1  N    0.001390   0.021967   0.000170  -0.000268   0.000178  -0.959827
     2  H   -0.000224  -0.001768  -0.000005  -0.000016   0.000004   0.166424
     3  C   -0.058170  -2.088292  -0.012554   0.021953   0.006655   1.619950
     4  O    0.007378   0.054053  -0.000313  -0.000218  -0.000094   0.121146
     5  C   -0.031515  -0.838131  -0.099540   0.031840   0.017559  -0.158579
     6  C    0.011122  -0.268608  -0.026905   0.026533  -0.028961   0.103900
     7  H    0.000082   0.023263  -0.000643  -0.000108   0.001550  -0.002180
     8  H    0.001178   0.011806   0.000180  -0.000433   0.000160   0.003689
     9  H   -0.001394  -0.043047   0.002096   0.000143  -0.000292   0.002484
    10  C    0.398972  -0.323320  -0.018899  -0.028900   0.032202   0.122082
    11  H   -0.027003   0.036017  -0.000658   0.002399  -0.000044  -0.004181
    12  H   -0.022553  -0.025292   0.002119  -0.000475   0.000021   0.002036
    13  H    0.515690   0.005337   0.000096  -0.000007  -0.000588  -0.014939
    14  C    0.005337   6.338867   0.471312   0.379852   0.377659  -0.143260
    15  H    0.000096   0.471312   0.527605  -0.026902  -0.024355  -0.000108
    16  H   -0.000007   0.379852  -0.026902   0.555527  -0.031663  -0.000300
    17  H   -0.000588   0.377659  -0.024355  -0.031663   0.548584   0.000009
    18  C   -0.014939  -0.143260  -0.000108  -0.000300   0.000009  14.526734
    19  C    0.005203  -0.014066  -0.000062  -0.000071   0.000005  -0.682410
    20  C    0.001038   0.052449   0.000062   0.000139   0.000204  -2.270987
    21  C   -0.001413  -0.008235   0.000002   0.000007  -0.000002   0.219842
    22  H   -0.000156  -0.000344   0.000000   0.000000   0.000000   0.028777
    23  C    0.000043   0.002010   0.000004   0.000011  -0.000008  -1.993416
    24  H   -0.000008  -0.000730   0.000000   0.000000   0.000000  -0.030748
    25  C    0.000138   0.000496   0.000000  -0.000005   0.000003  -1.279547
    26  H    0.000001   0.000000   0.000000   0.000000   0.000000   0.016317
    27  Cl  -0.000001  -0.000013   0.000000   0.000000   0.000001  -0.077102
    28  H    0.000000   0.000000   0.000000   0.000000   0.000000   0.035674
    29  C    0.057344   2.553442   0.062924  -0.059730  -0.034202  -2.859898
    30  H   -0.000429  -0.000899   0.000144  -0.001600   0.004456  -0.014433
    31  H   -0.002079  -0.033031  -0.000058   0.004210  -0.001579   0.028067
              19         20         21         22         23         24
     1  N   -0.079507   0.329776   0.149310  -0.001837   0.371417  -0.023518
     2  H    0.079058  -0.179947  -0.017932   0.000035  -0.027311   0.002361
     3  C    0.233100  -0.331401  -0.086541   0.000838  -0.536505   0.033277
     4  O   -0.044752  -0.029458  -0.075113  -0.003217  -0.005305   0.000440
     5  C   -0.012142   0.125208   0.004061  -0.001632  -0.067456  -0.001253
     6  C    0.020578  -0.069745  -0.025080   0.000315   0.007135   0.001684
     7  H   -0.000587   0.000222   0.000008  -0.000001  -0.000089  -0.000010
     8  H    0.000811  -0.001588   0.001309  -0.000011  -0.001250  -0.000017
     9  H   -0.000504   0.000045   0.000217   0.000001   0.000034   0.000000
    10  C    0.048025  -0.086470   0.036069   0.001126  -0.002473  -0.000021
    11  H    0.000345   0.000126  -0.000351  -0.000004  -0.000001   0.000000
    12  H   -0.000581  -0.000033  -0.000126   0.000000   0.000000   0.000000
    13  H    0.005203   0.001038  -0.001413  -0.000156   0.000043  -0.000008
    14  C   -0.014066   0.052449  -0.008235  -0.000344   0.002010  -0.000730
    15  H   -0.000062   0.000062   0.000002   0.000000   0.000004   0.000000
    16  H   -0.000071   0.000139   0.000007   0.000000   0.000011   0.000000
    17  H    0.000005   0.000204  -0.000002   0.000000  -0.000008   0.000000
    18  C   -0.682410  -2.270987   0.219842   0.028777  -1.993416  -0.030748
    19  C    9.000158  -1.726716  -0.579823   0.370476  -0.933458  -0.063963
    20  C   -1.726716  15.878891  -1.225182  -0.032180  -1.206914   0.331758
    21  C   -0.579823  -1.225182   7.495477   0.019477  -0.498811   0.004548
    22  H    0.370476  -0.032180   0.019477   0.525171   0.018715  -0.000070
    23  C   -0.933458  -1.206914  -0.498811   0.018715  12.126386   0.094562
    24  H   -0.063963   0.331758   0.004548  -0.000070   0.094562   0.525728
    25  C   -0.010488  -4.564978   0.836629  -0.016341  -1.235588   0.033472
    26  H   -0.003659  -0.021387   0.378362  -0.007794  -0.001365   0.000047
    27  Cl   0.079711   0.361293   0.162888   0.000719  -0.965445  -0.003110
    28  H   -0.031466  -0.000068  -0.020058  -0.000212   0.055035  -0.000293
    29  C    0.207574   0.697249  -0.495719  -0.025231   0.262217  -0.033780
    30  H   -0.005905   0.019769   0.000304   0.000018  -0.001942   0.000053
    31  H    0.007173  -0.014122   0.002142   0.000044  -0.002050   0.000144
              25         26         27         28         29         30
     1  N   -0.064039  -0.000874   0.014262   0.000037   0.243281   0.000623
     2  H    0.001464   0.000022  -0.000949  -0.000002   0.123971  -0.003151
     3  C    0.184072   0.001498  -0.021019   0.000222 -16.294327  -0.052617
     4  O    0.017939  -0.000122   0.000817  -0.000022   0.475558  -0.003474
     5  C   -0.003647  -0.000003  -0.001087   0.000000  -3.057160   0.001755
     6  C    0.018202   0.000094  -0.001705  -0.000012  -0.790670  -0.011211
     7  H   -0.000070   0.000000   0.000003   0.000000   0.076497   0.001521
     8  H   -0.000207  -0.000002   0.000033   0.000000  -0.167899   0.000126
     9  H   -0.000076   0.000000   0.000001   0.000000   0.019799  -0.000010
    10  C   -0.008944  -0.000073   0.000623   0.000008  -1.089747   0.002857
    11  H    0.000056   0.000000  -0.000001   0.000000   0.053086   0.000048
    12  H    0.000004   0.000000   0.000000   0.000000  -0.009027  -0.000542
    13  H    0.000138   0.000001  -0.000001   0.000000   0.057344  -0.000429
    14  C    0.000496   0.000000  -0.000013   0.000000   2.553442  -0.000899
    15  H    0.000000   0.000000   0.000000   0.000000   0.062924   0.000144
    16  H   -0.000005   0.000000   0.000000   0.000000  -0.059730  -0.001600
    17  H    0.000003   0.000000   0.000001   0.000000  -0.034202   0.004456
    18  C   -1.279547   0.016317  -0.077102   0.035674  -2.859898  -0.014433
    19  C   -0.010488  -0.003659   0.079711  -0.031466   0.207574  -0.005905
    20  C   -4.564978  -0.021387   0.361293  -0.000068   0.697249   0.019769
    21  C    0.836629   0.378362   0.162888  -0.020058  -0.495719   0.000304
    22  H   -0.016341  -0.007794   0.000719  -0.000212  -0.025231   0.000018
    23  C   -1.235588  -0.001365  -0.965445   0.055035   0.262217  -0.001942
    24  H    0.033472   0.000047  -0.003110  -0.000293  -0.033780   0.000053
    25  C   12.486758  -0.018727  -0.107487   0.309352   0.090311   0.000329
    26  H   -0.018727   0.527756   0.000765  -0.007678   0.000097   0.000000
    27  Cl  -0.107487   0.000765  17.212998  -0.001237   0.003449  -0.000088
    28  H    0.309352  -0.007678  -0.001237   0.512377  -0.000053   0.000000
    29  C    0.090311   0.000097   0.003449  -0.000053  26.013273   0.405094
    30  H    0.000329   0.000000  -0.000088   0.000000   0.405094   0.489086
    31  H   -0.000160   0.000000  -0.000017   0.000000   0.074125  -0.023791
              31
     1  N   -0.024852
     2  H    0.006481
     3  C    0.214670
     4  O    0.002559
     5  C    0.046357
     6  C    0.009279
     7  H   -0.000287
     8  H    0.000221
     9  H   -0.000580
    10  C    0.016003
    11  H    0.002594
    12  H    0.000005
    13  H   -0.002079
    14  C   -0.033031
    15  H   -0.000058
    16  H    0.004210
    17  H   -0.001579
    18  C    0.028067
    19  C    0.007173
    20  C   -0.014122
    21  C    0.002142
    22  H    0.000044
    23  C   -0.002050
    24  H    0.000144
    25  C   -0.000160
    26  H    0.000000
    27  Cl  -0.000017
    28  H    0.000000
    29  C    0.074125
    30  H   -0.023791
    31  H    0.525611
 Mulliken charges:
               1
     1  N    0.051636
     2  H    0.216560
     3  C   -0.073613
     4  O   -0.140301
     5  C    0.162776
     6  C   -0.446786
     7  H    0.119005
     8  H    0.180937
     9  H    0.121251
    10  C   -0.410982
    11  H    0.130432
    12  H    0.141338
    13  H    0.155468
    14  C   -0.539495
    15  H    0.144289
    16  H    0.128079
    17  H    0.132539
    18  C   -0.505217
    19  C    0.137944
    20  C   -0.037051
    21  C   -0.276267
    22  H    0.123316
    23  C    0.541816
    24  H    0.129446
    25  C   -0.668924
    26  H    0.136726
    27  Cl   0.341701
    28  H    0.148396
    29  C   -0.501850
    30  H    0.193912
    31  H    0.162921
 Sum of Mulliken charges =   0.00000
 Mulliken charges with hydrogens summed into heavy atoms:
               1
     1  N    0.268196
     3  C   -0.073613
     4  O   -0.140301
     5  C    0.162776
     6  C   -0.025594
    10  C    0.016255
    14  C   -0.134587
    18  C   -0.505217
    19  C    0.261260
    20  C    0.092395
    21  C   -0.139541
    23  C    0.541816
    25  C   -0.520529
    27  Cl   0.341701
    29  C   -0.145018
 Electronic spatial extent (au):  <R**2>=           5129.1576
 Charge=              0.0000 electrons
 Dipole moment (field-independent basis, Debye):
    X=             -0.6881    Y=             -0.1462    Z=             -2.2886  Tot=              2.3943
 Quadrupole moment (field-independent basis, Debye-Ang):
   XX=           -100.9913   YY=            -95.3274   ZZ=           -100.7777
   XY=              6.4299   XZ=              5.3221   YZ=              4.1097
 Traceless Quadrupole moment (field-independent basis, Debye-Ang):
   XX=             -1.9591   YY=              3.7047   ZZ=             -1.7456
   XY=              6.4299   XZ=              5.3221   YZ=              4.1097
 Octapole moment (field-independent basis, Debye-Ang**2):
  XXX=             -0.3616  YYY=              4.9924  ZZZ=             -7.1872  XYY=             12.1782
  XXY=             21.9904  XXZ=             10.5833  XZZ=              1.8785  YZZ=             -6.9269
  YYZ=              4.8239  XYZ=              5.1728
 Hexadecapole moment (field-independent basis, Debye-Ang**3):
 XXXX=          -5735.1823 YYYY=           -878.3059 ZZZZ=           -458.0137 XXXY=             13.9680
 XXXZ=             56.7494 YYYX=             -6.3915 YYYZ=             17.1038 ZZZX=             18.7450
 ZZZY=             15.2993 XXYY=          -1098.7829 XXZZ=          -1035.9979 YYZZ=           -241.8669
 XXYZ=             32.3539 YYXZ=             15.1136 ZZXY=            -15.2991
 N-N= 1.075809210100D+03 E-N=-4.633921928851D+03  KE= 1.054193954929D+03
 There are a total of      257266 grid points.
 ElSum from          density=      120.0000663866
 ElSum from atomic densities=      120.0001980485

 Hirshfeld populations at iteration   1 (CX, CA, CB, DipXYZ):
               1          2          3          4          5          6
     1  N    0.000000   3.571159   3.571159   0.048839  -0.090613   0.047761
     2  H    0.000002   0.439789   0.439789   0.011902  -0.143383  -0.139016
     3  C    0.000000   2.892251   2.892251   0.002273   0.014991  -0.024910
     4  O    0.000000   4.109082   4.109082  -0.108467  -0.053510  -0.020429
     5  C    0.000000   2.992819   2.992819  -0.016909   0.001417   0.004440
     6  C    0.000000   3.065044   3.065044  -0.015605  -0.001605  -0.019347
     7  H    0.000001   0.488743   0.488743   0.035596  -0.132312   0.018739
     8  H    0.000001   0.489212   0.489212   0.075459   0.066711   0.063949
     9  H    0.000001   0.488904   0.488904  -0.104339   0.040537   0.082873
    10  C    0.000000   3.052590   3.052590  -0.007754  -0.009653   0.012429
    11  H    0.000001   0.485793   0.485793  -0.036431   0.024192  -0.134788
    12  H    0.000001   0.481476   0.481476  -0.113901   0.034766   0.088654
    13  H    0.000000   0.484594   0.484594   0.091861   0.090836   0.038002
    14  C    0.000000   3.050019   3.050019   0.004097   0.005954   0.007133
    15  H    0.000000   0.481132   0.481132  -0.115383   0.035247   0.085856
    16  H    0.000000   0.484854   0.484854  -0.034062   0.025603  -0.135446
    17  H    0.000000   0.483602   0.483602   0.032496  -0.138838   0.018643
    18  C    0.000000   2.974587   2.974587  -0.098103  -0.017271  -0.047186
    19  C    0.000000   3.019637   3.019637  -0.037820   0.051245   0.010873
    20  C    0.000000   3.028576   3.028576  -0.023310  -0.045262  -0.013634
    21  C    0.000000   3.016125   3.016125   0.016634   0.065487   0.034670
    22  H    0.000001   0.472826   0.472826  -0.092505   0.137915  -0.006194
    23  C    0.000001   2.982408   2.982408   0.057010  -0.078178   0.012901
    24  H    0.000002   0.475986   0.475986  -0.050548  -0.140313  -0.057711
    25  C    0.000000   3.023468   3.023468   0.047621   0.018282   0.032520
    26  H    0.000002   0.472104   0.472104   0.044613   0.149798   0.060648
    27  Cl   0.000009   8.538474   8.538474  -0.000424   0.007444   0.007242
    28  H    0.000003   0.473621   0.473621   0.143000   0.034125   0.075610
    29  C    0.000000   3.032186   3.032186   0.010020  -0.016701  -0.009564
    30  H    0.000000   0.471439   0.471439   0.030077  -0.147988   0.022088
    31  H    0.000000   0.477532   0.477532  -0.039273   0.024450  -0.136346
       Tot   0.000026  60.000033  60.000033  -0.243336  -0.186625  -0.019540

 Dip from Atomic Chgs             -0.027380   0.128737  -0.880417
         Total Dipole             -0.270716  -0.057888  -0.899957

 Hirshfeld charges, spin densities, dipoles, and CM5 charges using IRadAn=      4:
              Q-H        S-H        Dx         Dy         Dz        Q-CM5   
     1  N   -0.142319   0.000000   0.048839  -0.090613   0.047761  -0.466992
     2  H    0.120422   0.000000   0.011902  -0.143383  -0.139016   0.321287
     3  C    0.215498   0.000000   0.002273   0.014991  -0.024910   0.284205
     4  O   -0.218163   0.000000  -0.108467  -0.053510  -0.020429  -0.297942
     5  C    0.014362   0.000000  -0.016909   0.001417   0.004440  -0.024549
     6  C   -0.130088   0.000000  -0.015605  -0.001605  -0.019347  -0.283606
     7  H    0.022514   0.000000   0.035596  -0.132312   0.018739   0.079721
     8  H    0.021576   0.000000   0.075459   0.066711   0.063949   0.110047
     9  H    0.022191   0.000000  -0.104339   0.040537   0.082873   0.078308
    10  C   -0.105180   0.000000  -0.007754  -0.009653   0.012429  -0.259920
    11  H    0.028413   0.000000  -0.036431   0.024192  -0.134788   0.084659
    12  H    0.037048   0.000000  -0.113901   0.034766   0.088654   0.092834
    13  H    0.030813   0.000000   0.091861   0.090836   0.038002   0.094234
    14  C   -0.100038   0.000000   0.004097   0.005954   0.007133  -0.256249
    15  H    0.037737   0.000000  -0.115383   0.035247   0.085856   0.093272
    16  H    0.030292   0.000000  -0.034062   0.025603  -0.135446   0.085971
    17  H    0.032795   0.000000   0.032496  -0.138838   0.018643   0.088482
    18  C    0.050827   0.000000  -0.098103  -0.017271  -0.047186   0.094094
    19  C   -0.039275   0.000000  -0.037820   0.051245   0.010873  -0.088819
    20  C   -0.057152   0.000000  -0.023310  -0.045262  -0.013634  -0.104428
    21  C   -0.032250   0.000000   0.016634   0.065487   0.034670  -0.089300
    22  H    0.054347   0.000000  -0.092505   0.137915  -0.006194   0.115712
    23  C    0.035184   0.000000   0.057010  -0.078178   0.012901   0.028327
    24  H    0.048027   0.000000  -0.050548  -0.140313  -0.057711   0.107750
    25  C   -0.046936   0.000000   0.047621   0.018282   0.032520  -0.100882
    26  H    0.055792   0.000000   0.044613   0.149798   0.060648   0.113385
    27  Cl  -0.076949   0.000000  -0.000424   0.007444   0.007242  -0.077179
    28  H    0.052757   0.000000   0.143000   0.034125   0.075610   0.111383
    29  C   -0.064371   0.000000   0.010020  -0.016701  -0.009564  -0.165894
    30  H    0.057123   0.000000   0.030077  -0.147988   0.022088   0.121434
    31  H    0.044937   0.000000  -0.039273   0.024450  -0.136346   0.110591
       Tot  -0.000066   0.000000  -0.243336  -0.186625  -0.019540  -0.000066
 Hirshfeld charges with hydrogens summed into heavy atoms:
              Q-H       Q-CM5   
     1  N   -0.021897  -0.145705
     3  C    0.215498   0.284205
     4  O   -0.218163  -0.297942
     5  C    0.014362  -0.024549
     6  C   -0.063807  -0.015531
    10  C   -0.008906   0.011807
    14  C    0.000786   0.011476
    18  C    0.050827   0.094094
    19  C    0.015073   0.026893
    20  C   -0.009125   0.003322
    21  C    0.023542   0.024085
    23  C    0.035184   0.028327
    25  C    0.005821   0.010500
    27  Cl  -0.076949  -0.077179
    29  C    0.037689   0.066131
 
 EQQ= 0.000000000000E+00 EQD= 0.000000000000E+00 EDD= 0.664215896966E-02
 EQQ+QD+DD= 0.664215896966E-02
 
          MBS Condensed to atoms (all electrons):
               1          2          3          4          5          6
     1  N    6.568050   0.322663   0.321503  -0.024924   0.000640  -0.000036
     2  H    0.322663   0.467107  -0.026315   0.000983   0.000031   0.000009
     3  C    0.321503  -0.026315   4.591737   0.439043  -0.032803  -0.004109
     4  O   -0.024924   0.000983   0.439043   8.075765  -0.003446  -0.030869
     5  C    0.000640   0.000031  -0.032803  -0.003446   4.731753   0.368295
     6  C   -0.000036   0.000009  -0.004109  -0.030869   0.368295   4.947335
     7  H    0.000002  -0.000001  -0.000091   0.000526  -0.023983   0.375794
     8  H    0.000055  -0.000005  -0.005686   0.016461  -0.020660   0.372735
     9  H    0.000001   0.000000   0.000109   0.000632  -0.023354   0.372417
    10  C    0.000016   0.000002  -0.007338  -0.002150   0.368073  -0.025659
    11  H   -0.000001   0.000001   0.000072   0.000054  -0.023253   0.001619
    12  H    0.000001   0.000000   0.000129   0.000040  -0.022205  -0.002598
    13  H   -0.000160   0.000006   0.001673   0.001782  -0.022185  -0.002573
    14  C   -0.000005   0.000000   0.001492   0.000006   0.370099  -0.026044
    15  H    0.000000   0.000000  -0.000043   0.000001  -0.022274  -0.002435
    16  H    0.000000  -0.000001   0.000014   0.000001  -0.022988   0.001674
    17  H    0.000000   0.000000   0.000014   0.000001  -0.022666  -0.002399
    18  C    0.332704  -0.030366  -0.027982  -0.001031  -0.000011   0.000000
    19  C   -0.026980   0.001627  -0.000860  -0.000149   0.000000   0.000000
    20  C   -0.025971  -0.003022  -0.001569   0.000006   0.000000   0.000000
    21  C    0.000556  -0.000038  -0.000011  -0.000002   0.000000   0.000000
    22  H   -0.001411   0.000037   0.000137  -0.000020   0.000000   0.000000
    23  C    0.000532   0.000010   0.000007  -0.000001   0.000000   0.000000
    24  H   -0.002602   0.001414   0.000164  -0.000003   0.000000   0.000000
    25  C    0.000007   0.000002   0.000003   0.000000   0.000000   0.000000
    26  H   -0.000010   0.000001   0.000000   0.000000   0.000000   0.000000
    27  Cl  -0.000001  -0.000001   0.000000   0.000000   0.000000   0.000000
    28  H    0.000000   0.000000   0.000000   0.000000   0.000000   0.000000
    29  C   -0.033857  -0.000411   0.385220  -0.031249   0.386371  -0.031158
    30  H    0.000072  -0.000091  -0.022301  -0.000455  -0.025603  -0.004053
    31  H   -0.001629   0.000269  -0.026104   0.000973  -0.027845   0.002342
               7          8          9         10         11         12
     1  N    0.000002   0.000055   0.000001   0.000016  -0.000001   0.000001
     2  H   -0.000001  -0.000005   0.000000   0.000002   0.000001   0.000000
     3  C   -0.000091  -0.005686   0.000109  -0.007338   0.000072   0.000129
     4  O    0.000526   0.016461   0.000632  -0.002150   0.000054   0.000040
     5  C   -0.023983  -0.020660  -0.023354   0.368073  -0.023253  -0.022205
     6  C    0.375794   0.372735   0.372417  -0.025659   0.001619  -0.002598
     7  H    0.625661  -0.020923  -0.021804   0.001640  -0.000070   0.000033
     8  H   -0.020923   0.525290  -0.019373  -0.002345   0.000017  -0.000033
     9  H   -0.021804  -0.019373   0.622724  -0.002505   0.000029   0.000957
    10  C    0.001640  -0.002345  -0.002505   4.882712   0.378131   0.382088
    11  H   -0.000070   0.000017   0.000029   0.378131   0.613801  -0.022478
    12  H    0.000033  -0.000033   0.000957   0.382088  -0.022478   0.593473
    13  H    0.000028   0.000574  -0.000039   0.379103  -0.022793  -0.021726
    14  C   -0.002696   0.001444  -0.003025  -0.026227  -0.002559  -0.002628
    15  H   -0.000035   0.000020   0.001152  -0.002541  -0.000061   0.000966
    16  H    0.000024  -0.000067   0.000041  -0.002480   0.001147  -0.000052
    17  H    0.001144   0.000013  -0.000031   0.001652   0.000014   0.000027
    18  C    0.000000   0.000006   0.000000  -0.000001   0.000000   0.000000
    19  C    0.000000   0.000001   0.000000   0.000000   0.000000   0.000000
    20  C    0.000000   0.000000   0.000000   0.000000   0.000000   0.000000
    21  C    0.000000   0.000000   0.000000   0.000000   0.000000   0.000000
    22  H    0.000000   0.000000   0.000000   0.000000   0.000000   0.000000
    23  C    0.000000   0.000000   0.000000   0.000000   0.000000   0.000000
    24  H    0.000000   0.000000   0.000000   0.000000   0.000000   0.000000
    25  C    0.000000   0.000000   0.000000   0.000000   0.000000   0.000000
    26  H    0.000000   0.000000   0.000000   0.000000   0.000000   0.000000
    27  Cl   0.000000   0.000000   0.000000   0.000000   0.000000   0.000000
    28  H    0.000000   0.000000   0.000000   0.000000   0.000000   0.000000
    29  C   -0.003433  -0.002404   0.001869  -0.033371  -0.003325   0.001932
    30  H    0.001788  -0.000111   0.000056   0.002300   0.000019  -0.000079
    31  H    0.000013  -0.000020  -0.000073  -0.003624   0.001413   0.000033
              13         14         15         16         17         18
     1  N   -0.000160  -0.000005   0.000000   0.000000   0.000000   0.332704
     2  H    0.000006   0.000000   0.000000  -0.000001   0.000000  -0.030366
     3  C    0.001673   0.001492  -0.000043   0.000014   0.000014  -0.027982
     4  O    0.001782   0.000006   0.000001   0.000001   0.000001  -0.001031
     5  C   -0.022185   0.370099  -0.022274  -0.022988  -0.022666  -0.000011
     6  C   -0.002573  -0.026044  -0.002435   0.001674  -0.002399   0.000000
     7  H    0.000028  -0.002696  -0.000035   0.000024   0.001144   0.000000
     8  H    0.000574   0.001444   0.000020  -0.000067   0.000013   0.000006
     9  H   -0.000039  -0.003025   0.001152   0.000041  -0.000031   0.000000
    10  C    0.379103  -0.026227  -0.002541  -0.002480   0.001652  -0.000001
    11  H   -0.022793  -0.002559  -0.000061   0.001147   0.000014   0.000000
    12  H   -0.021726  -0.002628   0.000966  -0.000052   0.000027   0.000000
    13  H    0.585472   0.001608   0.000019   0.000017  -0.000069   0.000010
    14  C    0.001608   4.863048   0.382227   0.378144   0.379722   0.000000
    15  H    0.000019   0.382227   0.591186  -0.022627  -0.022433   0.000000
    16  H    0.000017   0.378144  -0.022627   0.611487  -0.023202   0.000000
    17  H   -0.000069   0.379722  -0.022433  -0.023202   0.605154   0.000000
    18  C    0.000010   0.000000   0.000000   0.000000   0.000000   4.713316
    19  C    0.000002   0.000000   0.000000   0.000000   0.000000   0.501443
    20  C    0.000000   0.000000   0.000000   0.000000   0.000000   0.502188
    21  C    0.000000   0.000000   0.000000   0.000000   0.000000  -0.028557
    22  H    0.000006   0.000000   0.000000   0.000000   0.000000  -0.025200
    23  C    0.000000   0.000000   0.000000   0.000000   0.000000  -0.025624
    24  H    0.000000   0.000000   0.000000   0.000000   0.000000  -0.024690
    25  C    0.000000   0.000000   0.000000   0.000000   0.000000  -0.010892
    26  H    0.000000   0.000000   0.000000   0.000000   0.000000   0.001435
    27  Cl   0.000000   0.000000   0.000000   0.000000   0.000000   0.000591
    28  H    0.000000   0.000000   0.000000   0.000000   0.000000   0.000067
    29  C   -0.003590  -0.032561   0.001909  -0.003154  -0.003165   0.001165
    30  H    0.000065  -0.004123   0.000059  -0.000141   0.001557  -0.000080
    31  H   -0.000271  -0.004187   0.000049   0.001616  -0.000123   0.000065
              19         20         21         22         23         24
     1  N   -0.026980  -0.025971   0.000556  -0.001411   0.000532  -0.002602
     2  H    0.001627  -0.003022  -0.000038   0.000037   0.000010   0.001414
     3  C   -0.000860  -0.001569  -0.000011   0.000137   0.000007   0.000164
     4  O   -0.000149   0.000006  -0.000002  -0.000020  -0.000001  -0.000003
     5  C    0.000000   0.000000   0.000000   0.000000   0.000000   0.000000
     6  C    0.000000   0.000000   0.000000   0.000000   0.000000   0.000000
     7  H    0.000000   0.000000   0.000000   0.000000   0.000000   0.000000
     8  H    0.000001   0.000000   0.000000   0.000000   0.000000   0.000000
     9  H    0.000000   0.000000   0.000000   0.000000   0.000000   0.000000
    10  C    0.000000   0.000000   0.000000   0.000000   0.000000   0.000000
    11  H    0.000000   0.000000   0.000000   0.000000   0.000000   0.000000
    12  H    0.000000   0.000000   0.000000   0.000000   0.000000   0.000000
    13  H    0.000002   0.000000   0.000000   0.000006   0.000000   0.000000
    14  C    0.000000   0.000000   0.000000   0.000000   0.000000   0.000000
    15  H    0.000000   0.000000   0.000000   0.000000   0.000000   0.000000
    16  H    0.000000   0.000000   0.000000   0.000000   0.000000   0.000000
    17  H    0.000000   0.000000   0.000000   0.000000   0.000000   0.000000
    18  C    0.501443   0.502188  -0.028557  -0.025200  -0.025624  -0.024690
    19  C    4.817461  -0.033510   0.502686   0.390803  -0.010745   0.001394
    20  C   -0.033510   4.853921  -0.009972   0.001425   0.500486   0.388041
    21  C    0.502686  -0.009972   4.813985  -0.024120  -0.028045   0.000070
    22  H    0.390803   0.001425  -0.024120   0.531798   0.000074  -0.000043
    23  C   -0.010745   0.500486  -0.028045   0.000074   4.720605  -0.024467
    24  H    0.001394   0.388041   0.000070  -0.000043  -0.024467   0.542350
    25  C   -0.030589  -0.032495   0.501165   0.001486   0.502639   0.001401
    26  H   -0.025170   0.000016   0.393737  -0.003758   0.001397   0.000002
    27  Cl   0.000003  -0.027953   0.000629   0.000000   0.264020  -0.001959
    28  H    0.001478   0.001411  -0.024010  -0.000038  -0.025773  -0.000043
    29  C   -0.000003  -0.000006   0.000000  -0.000003   0.000000  -0.000022
    30  H    0.000000   0.000025   0.000000   0.000000   0.000000   0.000020
    31  H    0.000000   0.000000   0.000000   0.000000   0.000000  -0.000001
              25         26         27         28         29         30
     1  N    0.000007  -0.000010  -0.000001   0.000000  -0.033857   0.000072
     2  H    0.000002   0.000001  -0.000001   0.000000  -0.000411  -0.000091
     3  C    0.000003   0.000000   0.000000   0.000000   0.385220  -0.022301
     4  O    0.000000   0.000000   0.000000   0.000000  -0.031249  -0.000455
     5  C    0.000000   0.000000   0.000000   0.000000   0.386371  -0.025603
     6  C    0.000000   0.000000   0.000000   0.000000  -0.031158  -0.004053
     7  H    0.000000   0.000000   0.000000   0.000000  -0.003433   0.001788
     8  H    0.000000   0.000000   0.000000   0.000000  -0.002404  -0.000111
     9  H    0.000000   0.000000   0.000000   0.000000   0.001869   0.000056
    10  C    0.000000   0.000000   0.000000   0.000000  -0.033371   0.002300
    11  H    0.000000   0.000000   0.000000   0.000000  -0.003325   0.000019
    12  H    0.000000   0.000000   0.000000   0.000000   0.001932  -0.000079
    13  H    0.000000   0.000000   0.000000   0.000000  -0.003590   0.000065
    14  C    0.000000   0.000000   0.000000   0.000000  -0.032561  -0.004123
    15  H    0.000000   0.000000   0.000000   0.000000   0.001909   0.000059
    16  H    0.000000   0.000000   0.000000   0.000000  -0.003154  -0.000141
    17  H    0.000000   0.000000   0.000000   0.000000  -0.003165   0.001557
    18  C   -0.010892   0.001435   0.000591   0.000067   0.001165  -0.000080
    19  C   -0.030589  -0.025170   0.000003   0.001478  -0.000003   0.000000
    20  C   -0.032495   0.000016  -0.027953   0.001411  -0.000006   0.000025
    21  C    0.501165   0.393737   0.000629  -0.024010   0.000000   0.000000
    22  H    0.001486  -0.003758   0.000000  -0.000038  -0.000003   0.000000
    23  C    0.502639   0.001397   0.264020  -0.025773   0.000000   0.000000
    24  H    0.001401   0.000002  -0.001959  -0.000043  -0.000022   0.000020
    25  C    4.831085  -0.025153  -0.028025   0.390978   0.000000   0.000000
    26  H   -0.025153   0.538273  -0.000013  -0.003795   0.000000   0.000000
    27  Cl  -0.028025  -0.000013  17.001049  -0.001814   0.000000   0.000000
    28  H    0.390978  -0.003795  -0.001814   0.534123   0.000000   0.000000
    29  C    0.000000   0.000000   0.000000   0.000000   4.846452   0.371082
    30  H    0.000000   0.000000   0.000000   0.000000   0.371082   0.579998
    31  H    0.000000   0.000000   0.000000   0.000000   0.371427  -0.019750
              31
     1  N   -0.001629
     2  H    0.000269
     3  C   -0.026104
     4  O    0.000973
     5  C   -0.027845
     6  C    0.002342
     7  H    0.000013
     8  H   -0.000020
     9  H   -0.000073
    10  C   -0.003624
    11  H    0.001413
    12  H    0.000033
    13  H   -0.000271
    14  C   -0.004187
    15  H    0.000049
    16  H    0.001616
    17  H   -0.000123
    18  C    0.000065
    19  C    0.000000
    20  C    0.000000
    21  C    0.000000
    22  H    0.000000
    23  C    0.000000
    24  H   -0.000001
    25  C    0.000000
    26  H    0.000000
    27  Cl   0.000000
    28  H    0.000000
    29  C    0.371427
    30  H   -0.019750
    31  H    0.606434
 MBS Mulliken charges:
               1
     1  N   -0.429215
     2  H    0.266090
     3  C    0.413896
     4  O   -0.441975
     5  C    0.068016
     6  C   -0.310288
     7  H    0.066380
     8  H    0.155012
     9  H    0.070218
    10  C   -0.287475
    11  H    0.078222
    12  H    0.092123
    13  H    0.103041
    14  C   -0.273735
    15  H    0.094862
    16  H    0.080548
    17  H    0.084789
    18  C    0.121444
    19  C   -0.088890
    20  C   -0.113021
    21  C   -0.098072
    22  H    0.128826
    23  C    0.124885
    24  H    0.118974
    25  C   -0.101611
    26  H    0.123038
    27  Cl  -0.206526
    28  H    0.127416
    29  C   -0.185713
    30  H    0.119747
[...]
 4153,-0.00007513,-0.00002267,-0.00001181,0.00002021,0.00004616,-0.0000
 3085,-0.00002122,-0.00005795,-0.00003000,0.00002001,0.00007313,0.00002
 662,-0.00006904,0.00003678,-0.00003889,-0.00001211,-0.00000796,0.00000
 222,0.00001870,-0.00001542,-0.00000030,0.00000123,-0.02182924,0.012945
 72,-0.06008134,0.02399731,-0.07493462,0.00194965,-0.00549562,0.0491986
 1,0.04617469,-0.05819453,-0.04200474,-0.29641595,-0.00114642,-0.001074
 72,0.00218592,-0.05621123,0.05378089,-0.18501500,-0.00014990,-0.003576
 07,0.00108297,0.12507824,0.07532470,0.61322745,-0.00004677,0.00026196,
 -0.00024772,-0.00016530,0.00002910,0.00008597,0.00000685,-0.00007247,-
 0.00027711,0.00005134,-0.00001106,0.00012928,0.00002665,0.00000388,-0.
 00001508,-0.00000945,0.00000653,0.00000214,-0.00000001,-0.00000444,-0.
 00000051,0.00000879,0.00000087,-0.00000551,-0.00000659,0.00000489,0.00
 000466,-0.00001099,0.00001204,-0.00000106,0.00000436,-0.00000546,0.000
 00589,-0.00000717,0.00000420,0.00000373,0.00000804,0.00000055,-0.00000
 533,-0.00001142,-0.00000243,0.00000819,-0.00000524,0.00000533,0.000001
 53,0.00000260,-0.00000177,0.00000134,0.00000068,-0.00000321,-0.0000016
 4,0.00586281,0.00274963,-0.00077002,0.00075341,0.00396389,-0.00561387,
 -0.00075813,-0.00042593,0.00048757,-0.08980148,0.07591652,-0.08430668,
 -0.00340132,-0.00145864,0.00134346,0.00587448,0.00105116,-0.00202493,-
 0.00041874,-0.00012446,0.00010140,0.00168130,0.00378910,-0.00281259,0.
 08367498,0.00063406,-0.00076098,0.00103709,0.00004807,-0.00040712,-0.0
 0010168,0.00016607,0.00022299,0.00079779,-0.00016165,0.00012665,-0.000
 41120,-0.00004461,-0.00000778,0.00002752,0.00001811,-0.00000530,-0.000
 00283,-0.00000377,-0.00000334,0.00000020,-0.00000471,0.00000056,0.0000
 1140,0.00000773,-0.00000402,-0.00000846,0.00001130,0.00000077,-0.00000
 750,-0.00001011,0.00000661,-0.00000834,0.00001071,-0.00000783,-0.00000
 685,-0.00000949,-0.00000813,0.00001435,0.00001691,0.00000483,-0.000016
 17,0.00000889,-0.00000797,-0.00000170,-0.00000281,0.00000370,-0.000000
 53,-0.00000406,-0.00000090,0.00000024,0.00277103,-0.00356809,-0.002895
 29,0.01236758,-0.01337505,0.02078931,-0.00041516,-0.00054936,-0.000765
 37,0.07588260,-0.15716021,0.11195430,-0.00160620,0.00055550,0.00025409
 ,0.00113080,0.00119681,-0.00267666,-0.00012199,-0.00003904,0.00011357,
 -0.00484472,0.00981209,-0.00901484,-0.08436325,0.16372952,0.00016267,-
 0.00015441,0.00046476,0.00010359,-0.00014698,-0.00001157,0.00000816,-0
 .00002428,0.00003932,-0.00004194,0.00007885,-0.00002354,0.00000774,0.0
 0000140,-0.00000578,-0.00000112,-0.00000504,0.00000146,0.00000134,0.00
 000096,-0.00000004,0.00000300,0.00000088,-0.00000271,-0.00000257,0.000
 00164,0.00000052,0.00000179,-0.00000347,0.00000160,0.00000003,-0.00000
 017,-0.00000104,-0.00000189,0.00000114,0.00000074,0.00000242,0.0000027
 2,-0.00000141,-0.00000332,-0.00000204,0.00000196,-0.00000145,0.0000014
 3,0.00000035,-0.00000040,0.00000025,-0.00000210,0.00000126,0.00000063,
 0.00000049,-0.00076344,-0.00294978,0.00127818,0.00379158,-0.00646861,0
 .00891253,0.00050698,-0.00076741,-0.00027966,-0.08434125,0.11214410,-0
 .18524470,0.00117363,0.00073434,0.00030053,-0.00191808,-0.00297527,-0.
 00267926,0.00010497,0.00010483,-0.00003740,-0.01250286,0.01891272,-0.0
 1544342,0.09290592,-0.11901031,0.19360960,0.00029752,-0.00009027,-0.00
 005154,-0.00002484,-0.00001993,-0.00002340,-0.00012279,0.00018960,0.00
 020059,0.00008237,-0.00012401,-0.00010551,-0.00005794,-0.00001165,0.00
 002864,0.00001270,0.00001174,-0.00000189,-0.00000250,0.00000216,0.0000
 0337,-0.00000986,-0.00000553,0.00001065,0.00001200,-0.00000739,-0.0000
 0807,0.00001023,0.00001488,-0.00002269,-0.00000746,-0.00000575,0.00000
 878,0.00001298,-0.00000888,-0.00000645,-0.00001423,-0.00001058,0.00000
 453,0.00001903,0.00000721,-0.00001073,0.00001040,-0.00000888,-0.000005
 17,-0.00000271,-0.00000074,0.00000514,-0.00000273,0.00000189,0.0000008
 9,0.00367470,0.00220505,-0.00154531,-0.00046892,-0.00118940,0.00007432
 ,0.00443991,0.00119156,0.00275446,0.00300185,0.00399474,-0.00076698,-0
 .00054073,-0.00024049,0.00024703,-0.02906343,-0.00113395,-0.02211588,-
 0.00205592,-0.00095850,0.00125392,0.00118816,-0.00565367,-0.01655657,-
 0.00002103,-0.00025340,-0.00057833,0.02155136,-0.00036366,-0.00059434,
 -0.00219563,-0.00004334,0.00012689,0.00003500,0.00022806,0.00016307,0.
 00113139,-0.00008600,-0.00008201,-0.00048758,-0.00012211,-0.00003450,0
 .00007909,0.00003080,0.00000963,-0.00000401,-0.00001025,-0.00000129,0.
 00000350,-0.00002375,-0.00000571,0.00002822,0.00002939,-0.00001456,-0.
 00001965,0.00002291,0.00001569,-0.00002522,-0.00002252,0.00000800,-0.0
 0000412,0.00003185,-0.00002066,-0.00001986,-0.00002743,-0.00002544,0.0
 0002586,0.00005003,0.00001608,-0.00003974,0.00002779,-0.00002345,-0.00
 000916,-0.00000657,0.00000499,0.00000920,-0.00001111,0.00000095,0.0000
 0015,0.00359621,-0.00248354,0.00331010,-0.00106214,0.00115561,-0.00111
 757,-0.00606858,-0.00963245,-0.03475950,0.00194718,-0.00127940,-0.0002
 8612,-0.00029262,0.00017954,0.00003302,-0.00108321,-0.05027353,-0.0344
 6906,-0.00127695,0.00054912,-0.00046474,0.00199797,0.00720552,0.009707
 67,0.00008587,0.00007709,0.00028797,0.00330715,0.05423698,-0.00034185,
 -0.00125922,-0.00233309,-0.00005671,0.00009957,-0.00006779,0.00023383,
 0.00089133,0.00178962,-0.00004812,-0.00054428,-0.00081505,-0.00026653,
 -0.00006943,0.00018172,0.00006191,0.00003495,-0.00001123,-0.00002209,-
 0.00000148,0.00001178,-0.00005305,-0.00001784,0.00007090,0.00006812,-0
 .00003331,-0.00004163,0.00004207,0.00005987,-0.00008250,-0.00004496,0.
 00000595,0.00001534,0.00007060,-0.00004667,-0.00004151,-0.00006261,-0.
 00006117,0.00005280,0.00010228,0.00003733,-0.00008749,0.00006295,-0.00
 005375,-0.00002305,-0.00001291,0.00000822,0.00002551,-0.00002545,-0.00
 000094,-0.00000059,-0.00000558,-0.00116846,0.00360070,0.00019896,-0.00
 153333,-0.00192250,-0.00533564,-0.01141349,-0.02592993,-0.00303618,0.0
 0639191,0.00183180,0.00018301,0.00020148,0.00014122,-0.02205942,-0.034
 49401,-0.13280149,0.00090028,0.00057436,0.00080784,-0.00802877,-0.0151
 3725,-0.03847505,-0.00019828,-0.00081363,-0.00148385,0.03641219,0.0585
 9749,0.19489210,-0.00058238,-0.00022749,0.00031022,-0.00001230,-0.0000
 5347,-0.00003178,-0.00002501,0.00000440,-0.00008031,-0.00006515,-0.000
 08044,0.00007940,0.00000869,-0.00001891,0.00000176,-0.00000130,0.00000
 425,-0.00000335,-0.00000098,-0.00000310,-0.00000127,0.00000443,-0.0000
 0274,0.00000116,-0.00000100,-0.00000054,0.00000101,-0.00000974,0.00000
 439,-0.00000103,0.00000293,-0.00000132,0.00000196,-0.00000247,0.000002
 27,0.00000299,0.00000323,-0.00000052,-0.00000085,0.00000112,-0.0000005
 7,-0.00000137,-0.00000082,-0.00000051,0.00000072,0.00000167,-0.0000000
 7,0.00000015,-0.00000080,-0.00000284,-0.00000143,-0.00077036,-0.000268
 92,-0.00027142,0.00545845,0.00118671,-0.00273094,0.00354935,0.00232338
 ,-0.00330403,0.00421906,-0.00598552,-0.00145172,0.00034600,-0.00015246
 ,-0.00013578,-0.00101583,0.01191557,0.00430925,0.00036906,0.00072465,0
 .00007561,-0.05389527,0.07185492,0.01128119,-0.00327857,-0.00123461,0.
 00139853,-0.00193403,-0.00089927,0.00109923,0.04753093,-0.00026223,0.0
 0003692,0.00004554,-0.00000865,0.00004721,0.00004287,-0.00006565,0.000
 07711,-0.00008533,0.00002274,-0.00016987,-0.00000594,-0.00001259,-0.00
 000960,0.00001006,0.00000525,0.00000259,-0.00000487,-0.00000209,-0.000
 00066,-0.00000009,-0.00000353,-0.00000185,0.00000561,0.00000405,-0.000
 00244,-0.00000160,0.00000085,0.00000235,0.00000035,-0.00000296,0.00000
 226,-0.00000175,0.00000363,-0.00000216,-0.00000308,-0.00000303,-0.0000
 0421,0.00000397,0.00000665,0.00000241,-0.00000777,0.00000274,-0.000003
 12,-0.00000053,0.,0.00000052,0.00000318,-0.00000143,-0.00000047,-0.000
 00024,-0.00027267,0.00032725,0.00034289,0.00099550,0.00205827,-0.00196
 119,0.00253579,0.00041798,0.00269725,0.00243904,-0.00467060,-0.0002168
 6,0.00022520,-0.00019141,0.00013550,0.00310802,-0.01427268,-0.00783648
 ,0.00029787,-0.00057268,-0.00033637,0.07265469,-0.30482798,-0.06861113
 ,-0.00142702,0.00021743,0.00022608,-0.00116049,0.00084648,-0.00001280,
 -0.07913409,0.32069994,0.00027149,0.00014158,0.00029572,0.00002311,-0.
 00010112,-0.00006554,-0.00013179,0.00008167,-0.00032382,0.00017991,-0.
 00031789,0.00008450,-0.00001666,0.00000341,0.00000969,0.00000359,0.000
 00293,-0.00000228,-0.00000037,0.00000122,0.00000157,-0.00000553,-0.000
 00058,0.00000484,0.00000409,-0.00000267,-0.00000071,0.00000264,0.00000
 249,-0.00000554,0.00000093,-0.00000274,0.00000255,0.00000357,-0.000001
 14,0.00000038,-0.00000509,-0.00000100,-0.00000086,0.00000420,0.0000024
 1,-0.00000388,0.00000229,-0.00000214,-0.00000054,-0.00000056,-0.000000
 18,0.00000137,-0.00000020,0.00000150,0.00000091,-0.00027469,0.00034905
 ,-0.00127150,-0.00294630,-0.00135855,-0.00433783,-0.00305652,0.0019442
 0,-0.00237874,0.00797277,-0.02749874,-0.00231612,0.00028592,-0.0010816
 2,0.00005168,-0.00555404,0.02078074,0.00700080,-0.00040215,0.00104565,
 0.00046950,0.01219111,-0.07122225,-0.07267603,0.00116871,0.00084411,0.
 00062279,0.00080459,0.00084218,0.00095630,-0.01052005,0.07558726,0.073
 84315,0.01169983,0.00508987,0.00061261,-0.00255501,-0.00071594,0.00093
 717,-0.09138267,0.01554542,0.00704514,0.00512766,0.02207100,-0.0166071
 9,-0.11811869,0.01136480,0.02252299,-0.00026067,-0.00105376,0.00578080
 ,0.00077361,-0.00017801,-0.00124442,0.00000352,0.00037402,-0.00017693,
 0.00106971,-0.00009387,-0.00176116,-0.02939547,0.00080721,0.01038882,0
 .00104980,0.00074121,0.00052519,-0.00230655,-0.00310517,-0.00167411,0.
 00129275,0.00062484,0.00026627,-0.01785722,0.00961981,0.00803716,-0.00
 002962,0.00177153,-0.00053950,0.00027056,-0.00111255,0.00041255,0.0010
 2252,-0.00165099,-0.00009748,0.00674087,0.00011453,-0.00293492,-0.0006
 7621,0.00023599,-0.00012322,0.00012930,0.00008565,0.00021074,-0.000544
 61,-0.00040341,0.00029311,0.00072802,-0.00002078,-0.00018152,-0.000660
 08,-0.00029697,-0.00004946,0.00018871,0.00008171,-0.00008217,0.0000886
 9,0.00020572,0.00008938,-0.00000989,0.00000366,-0.00001298,0.00001085,
 0.00002051,0.00010464,0.00010554,0.00005154,-0.00001469,0.44641980,0.0
 0906222,-0.02510554,-0.01052588,0.00015361,-0.00047771,0.00120039,0.02
 520116,-0.15955104,-0.00909982,0.01539248,-0.01451801,0.01920718,-0.00
 193703,-0.07318032,0.00314037,-0.00385799,0.00080715,0.00153570,0.0005
 2966,-0.00008917,-0.00078086,-0.00018786,0.00013236,-0.00004850,-0.000
 17553,-0.00000093,0.00082308,-0.01823236,0.00291064,0.00884962,0.00075
 229,0.00056763,0.00044214,-0.00310859,-0.00236819,-0.00100838,-0.00004
 408,0.00048640,0.00047915,0.03225731,-0.01096200,-0.01567401,0.0030257
 7,-0.00623007,0.00052596,-0.00017058,0.00085720,-0.00068325,0.00060645
 ,0.00097850,-0.00017897,0.00087831,0.00351962,-0.00027505,0.00015149,-
 0.00060653,0.00031383,0.00018052,-0.00051801,-0.00035493,-0.00019056,0
 .00005470,0.00016514,0.00013237,0.00022071,-0.00006713,-0.00027167,0.0
 0015598,0.00009206,0.00005794,0.00003519,0.00000559,0.00006666,-0.0000
 8310,-0.00006108,0.00001416,-0.00003924,-0.00000168,-0.00001772,-0.000
 07202,-0.00011904,0.00003256,-0.00000758,-0.00002212,0.04083531,0.4935
 1370,0.00869856,-0.03451368,-0.00234034,0.00082163,-0.00288797,-0.0000
 7950,0.00050556,0.00918373,-0.08307114,-0.02279479,0.03706961,-0.00675
 480,0.02774741,-0.00453193,-0.08643540,0.03007622,-0.00520927,-0.02197
 601,0.00052382,-0.00005568,0.00121088,0.00006090,0.00011249,0.00119810
 ,-0.00085951,0.00106626,-0.00605246,-0.00750101,0.00271754,0.00524300,
 -0.00106577,-0.00008470,0.00028044,-0.00287595,-0.00168324,-0.00033605
 ,0.00028034,0.00002573,-0.00003860,-0.00067054,-0.00192111,0.00094824,
 -0.00103093,0.00114772,-0.00029799,-0.00151502,0.00132796,0.00016953,0
 .00017977,-0.00015550,0.00001313,-0.00262526,0.00070880,-0.00384556,0.
 00015765,-0.00008808,-0.00009524,0.00057014,-0.00155584,0.00013973,0.0
 0024217,0.00019266,0.00029041,-0.00007331,-0.00056502,-0.00001632,0.00
 008940,0.00017021,-0.00010594,-0.00008619,0.00002747,-0.00003038,-0.00
 004921,-0.00009473,-0.00016115,0.00002236,-0.00005714,-0.00000577,-0.0
 0001707,-0.00017375,-0.00026151,-0.00003563,-0.00001352,0.00002835,0.0
 7755361,-0.00204264,0.56931420,-0.00107655,0.00154581,0.00043041,0.000
 07174,0.00024597,-0.00007663,0.00788235,0.00897274,0.00384126,0.000105
 49,-0.00047324,0.00109550,-0.02242283,-0.01691302,-0.01051233,0.001355
 14,-0.00039145,-0.00168609,0.00030975,0.00036047,0.00108774,-0.0000091
 5,-0.00002824,0.00011491,0.00035000,0.00027175,-0.00026061,-0.00430004
 ,0.00243117,0.00372779,0.00034575,0.00024401,0.00001658,-0.00137649,-0
 .00123236,-0.00041991,0.00023637,-0.00000642,0.00007552,0.00082540,-0.
 00146659,-0.00080235,0.00047264,0.00006131,0.00022731,-0.00000784,0.00
 003589,0.00014683,0.00009560,0.00117194,0.00019357,-0.00051397,0.00014
 272,0.00051655,0.00002578,0.00000986,0.00002193,-0.00003989,0.00009705
 ,-0.00002683,0.00001712,0.00000129,-0.00002514,-0.00000090,-0.00002378
 ,-0.00001213,0.00004403,0.00001800,-0.00000502,-0.00001459,-0.00001477
 ,0.00001356,-0.00000264,0.00000411,0.00001743,-0.00000359,0.00000672,0
 .00000037,0.00000565,0.00001760,0.00002752,-0.00000199,0.00000033,0.00
 000158,-0.16447462,-0.10794723,-0.07690511,0.18415871,0.00280461,-0.00
 492524,0.00048319,-0.00027082,-0.00030304,0.00041974,-0.02326306,-0.02
 125106,-0.01535190,0.00241538,0.00370338,0.00012391,0.00157836,0.00158
 788,0.00195927,0.00002478,0.00009232,-0.00004479,-0.00007395,0.0001988
 5,0.00033886,-0.00010734,-0.00005995,-0.00009904,0.00015025,0.00009784
 ,0.00013927,0.00102213,0.00055498,-0.00005698,-0.00007021,-0.00010221,
 -0.00015669,0.00005601,0.00034148,-0.00009587,0.00013221,0.00012213,-0
 .00005647,0.00104502,0.00076659,0.00028579,-0.00010376,0.00005432,0.00
 013422,0.00003455,-0.00002629,-0.00000193,0.00003489,0.00028156,-0.000
 20402,0.00056367,0.00050897,-0.00117377,-0.00003008,-0.00009190,-0.000
 08379,0.00020036,-0.00033268,0.00003208,-0.00005702,0.00001471,0.00008
 719,0.00006136,-0.00003439,-0.00001650,-0.00007474,-0.00001764,0.00010
 836,0.00001835,0.00002793,-0.00000342,0.00001136,-0.00006016,-0.000087
 16,0.00000342,-0.00003033,0.00000161,-0.00001738,-0.00006351,-0.000105
 80,0.00001101,-0.00000019,-0.00000112,-0.10724908,-0.14000781,-0.06181
 417,0.11401828,0.15273327,0.00025004,-0.00093780,-0.00013369,-0.000299
 89,0.00038982,0.00079448,0.00191836,-0.00019449,-0.00077704,-0.0002889
 6,0.00098143,0.00004165,0.01255796,0.00937378,0.00525245,0.00079482,0.
 00099560,0.00111958,-0.00006273,-0.00031675,0.00002807,-0.00009086,0.0
 0003891,-0.00008187,-0.00019111,-0.00002466,0.00022517,0.00277825,-0.0
 0060421,-0.00138649,0.00018012,-0.00000597,0.00022532,0.00075113,0.000
 47927,0.00060141,-0.00017315,-0.00013685,-0.00004678,-0.00049809,0.000
 38329,0.00011976,-0.00007118,0.00027176,-0.00007097,-0.00008789,-0.000
 12912,-0.00005062,-0.00013032,-0.00006866,0.00027389,0.00022730,-0.000
 00085,0.00029768,0.00002353,-0.00008765,-0.00008143,-0.00001345,-0.000
 02194,-0.00003735,0.00000327,-0.00004703,0.00005772,0.00002491,-0.0000
 3726,0.00000163,-0.00000144,0.00003771,0.00002480,-0.00000193,0.000008
 50,0.00002071,0.00000346,-0.00000922,0.00001268,0.00000122,-0.00001773
 ,-0.00000307,-0.00000030,-0.00001480,-0.00002325,0.00000582,-0.0000009
 4,0.00000145,-0.07762964,-0.06336342,-0.09147130,0.08028536,0.07155814
 ,0.09733655,-0.00029152,-0.00049472,0.00062517,0.00086672,0.00049494,0
 .00009717,-0.00339892,0.00008092,-0.01193905,-0.00001738,0.00462575,-0
 .00016336,0.00109170,-0.00626689,0.02771805,-0.00498727,0.00097545,0.0
 0162316,0.00008421,0.00021071,0.00001239,-0.00004106,-0.00003693,-0.00
 021296,0.00026131,-0.00010135,0.00172024,0.00152415,0.00013521,0.00067
 638,-0.00023474,-0.00006143,-0.00055308,0.00021988,0.00024252,-0.00024
 956,-0.00009134,0.00003862,-0.00004176,0.00106976,-0.00091743,0.001059
 96,0.00019406,-0.00034944,-0.00021321,-0.00001315,0.00024518,-0.000593
 85,-0.00005027,0.00008900,-0.00020860,0.00001475,0.00000495,0.00010104
 ,-0.00003128,-0.00000873,-0.00004123,-0.00001203,0.00000777,-0.0000141
 0,0.00005724,-0.00000869,0.00006053,0.00003526,-0.00011028,-0.00000203
 ,-0.00000253,0.00001508,-0.00003336,0.00002788,0.00000796,0.00000866,-
 0.00000300,0.00001834,0.00001921,-0.00000062,-0.00000371,-0.00000435,-
 0.00000059,0.00000619,0.00003055,-0.00000245,0.00000254,0.00000814,-0.
 04845045,0.00681091,-0.02942426,-0.00205641,0.00713146,-0.02026463,0.0
 5423811,0.00012097,0.00056995,-0.00117712,0.00034983,-0.00255744,-0.00
 136243,0.00080701,-0.00264091,0.03194192,0.00498478,-0.00799472,0.0012
 8108,-0.00040483,0.00009052,-0.00356227,0.00129040,-0.00010246,-0.0009
 9260,0.00008267,0.00011055,0.00035971,0.00010025,0.00001292,-0.0000935
 1,0.00015595,0.00036809,-0.00042419,0.00010969,-0.00021368,0.00053497,
 -0.00022512,0.00010867,-0.00004495,0.00000476,-0.00001509,-0.00015514,
 -0.00000398,0.00002692,0.00005650,0.00054196,0.00042682,-0.00158532,-0
 .00019794,-0.00014803,0.00003099,0.00027123,0.00029748,0.00008826,-0.0
 0012211,-0.00003207,-0.00012519,0.00001701,-0.00001392,-0.00015872,-0.
 00004423,0.00012912,0.00012685,0.00000442,0.00006811,0.00008357,-0.000
 09100,0.00002899,-0.00015186,-0.00003259,0.00026523,0.00002286,-0.0000
 0134,-0.00007352,0.00002251,-0.00000588,-0.00001567,-0.00005318,0.0000
 0279,-0.00000076,-0.00002300,-0.00000299,0.00002014,0.00000791,-0.0000
 0738,0.00001078,-0.00001655,0.00000330,-0.00000122,-0.00001654,0.00623
 622,-0.07042252,0.06369781,-0.00115994,0.00622019,-0.01849886,-0.01278
 390,0.07547754,0.00029374,-0.00178771,0.00037562,0.00071002,-0.0003706
 0,0.00089486,-0.00043835,-0.00343940,-0.00557242,0.00023495,0.00143297
 ,0.00223390,-0.00128346,0.00289011,-0.01727612,0.00407921,-0.00077024,
 0.00033371,-0.00007891,0.00000485,0.00039821,-0.00011908,0.00005471,0.
 00018714,0.00015535,0.00024110,-0.00122524,-0.00095033,-0.00020485,0.0
 0027107,0.00061867,0.00036284,0.00074468,0.00010337,-0.00011693,0.0003
 1038,-0.00001338,-0.00007505,0.00000874,-0.00113254,0.00095360,0.00028
 033,-0.00002923,-0.00003157,0.00055467,0.00038772,-0.00070388,0.000915
 49,0.00002605,-0.00003203,-0.00014883,-0.00004621,0.00023302,0.0010444
 7,-0.00003440,-0.00007981,-0.00018990,-0.00004390,0.00009737,-0.000085
 47,0.00006737,-0.00000798,0.00014280,0.00004457,-0.00007541,0.00004069
 ,-0.00001546,0.00005048,0.00000935,0.00000412,0.00000448,0.00003575,0.
 00000606,0.00000318,0.00001546,0.00000695,-0.00002770,-0.00000951,0.00
 000678,-0.00000031,0.00002388,0.00000192,-0.00000006,0.00000784,-0.031
 65080,0.06752655,-0.27546054,-0.00110955,0.00368179,-0.01227113,0.0301
 9873,-0.06981350,0.30341014\\0.00000077,0.00000110,0.00000314,0.000005
 25,0.00000181,0.00000134,0.00000116,-0.00000168,0.00000030,-0.00000344
 ,-0.00000497,0.00000468,0.00000162,-0.00000128,-0.00000395,-0.00000650
 ,-0.00000321,0.00000049,-0.00000640,-0.00000329,0.00000202,-0.00000827
 ,-0.00000193,-0.00000083,-0.00000721,-0.00000217,-0.00000370,-0.000001
 92,-0.00000011,-0.00000582,0.00000329,0.00000267,-0.00000554,-0.000001
 10,0.00000172,-0.00000726,-0.00000252,0.00000163,-0.00000580,-0.000000
 20,0.00000201,-0.00000025,-0.00000004,0.00000073,-0.00000288,0.0000040
 6,0.00000179,-0.00000009,0.00000056,-0.00000134,0.00000324,0.00000356,
 -0.00000016,0.00000007,-0.00000232,-0.00000134,0.00000242,0.00000459,0
 .00000309,0.00000047,-0.00000193,-0.00000102,0.00000242,-0.00000461,-0
 .00000314,0.00000281,0.00000536,0.00000085,-0.00000073,0.00000804,0.00
 000346,-0.00000049,0.00000115,0.00000093,-0.00000118,-0.00000509,-0.00
 000251,0.00000159,0.00000947,0.00000484,-0.00000231,0.00000134,0.00000
 082,-0.00000036,-0.00000251,0.00000395,0.00000642,0.00000005,-0.000003
 15,0.00000633,0.00000381,-0.00000008,0.00000346\\\@


 EDUCATION IS NOT TRAINING BUT RATHER THE PROCESS THAT EQUIPS YOU TO
 ENTERTAIN YOURSELF, A FRIEND, OR AN IDEA.  -- WALLACE STERLING
 Job cpu time:       0 days  3 hours 41 minutes 20.0 seconds.
 File lengths (MBytes):  RWF=    565 Int=      0 D2E=      0 Chk=     15 Scr=      1
 Normal termination of Gaussian 09 at Tue Apr 23 15:17:27 2024.
