	You are loading a legacy vmd module, please load an up to date module instead.


	 module load container_env vmd

	Please run vmd command with crun.vmd prepend to it:
	
	 crun.vmd vmd

	 
module: Command not found.
module: Command not found.
 Entering Gaussian System, Link 0=g09
 Initial command:
 /opt/gaussian/g09/l1.exe "/tmp/G09-32.com.o10577420.tmp/Gau-1226616.inp" -scrdir="/tmp/G09-32.com.o10577420.tmp/"
 Entering Link 1 = /opt/gaussian/g09/l1.exe PID=   1226617.
  
 Copyright (c) 1988,1990,1992,1993,1995,1998,2003,2009,2013,
            Gaussian, Inc.  All Rights Reserved.
  
 This is part of the Gaussian(R) 09 program.  It is based on
 the Gaussian(R) 03 system (copyright 2003, Gaussian, Inc.),
 the Gaussian(R) 98 system (copyright 1998, Gaussian, Inc.),
 the Gaussian(R) 94 system (copyright 1995, Gaussian, Inc.),
 the Gaussian 92(TM) system (copyright 1992, Gaussian, Inc.),
 the Gaussian 90(TM) system (copyright 1990, Gaussian, Inc.),
 the Gaussian 88(TM) system (copyright 1988, Gaussian, Inc.),
 the Gaussian 86(TM) system (copyright 1986, Carnegie Mellon
 University), and the Gaussian 82(TM) system (copyright 1983,
 Carnegie Mellon University). Gaussian is a federally registered
 trademark of Gaussian, Inc.
  
 This software contains proprietary and confidential information,
 including trade secrets, belonging to Gaussian, Inc.
  
 This software is provided under written license and may be
 used, copied, transmitted, or stored only in accord with that
 written license.
  
 The following legend is applicable only to US Government
 contracts under FAR:
  
                    RESTRICTED RIGHTS LEGEND
  
 Use, reproduction and disclosure by the US Government is
 subject to restrictions as set forth in subparagraphs (a)
 and (c) of the Commercial Computer Software - Restricted
 Rights clause in FAR 52.227-19.
  
 Gaussian, Inc.
 340 Quinnipiac St., Bldg. 40, Wallingford CT 06492
  
  
 ---------------------------------------------------------------
 Warning -- This program may not be used in any manner that
 competes with the business of Gaussian, Inc. or will provide
 assistance to any competitor of Gaussian, Inc.  The licensee
 of this program is prohibited from giving any competitor of
 Gaussian, Inc. access to this program.  By using this program,
 the user acknowledges that Gaussian, Inc. is engaged in the
 business of creating and licensing software in the field of
 computational chemistry and represents and warrants to the
 licensee that it is not a competitor of Gaussian, Inc. and that
 it will not use this program in any manner prohibited above.
 ---------------------------------------------------------------
  

 Cite this work as:
 Gaussian 09, Revision D.01,
 M. J. Frisch, G. W. Trucks, H. B. Schlegel, G. E. Scuseria, 
 M. A. Robb, J. R. Cheeseman, G. Scalmani, V. Barone, B. Mennucci, 
 G. A. Petersson, H. Nakatsuji, M. Caricato, X. Li, H. P. Hratchian, 
 A. F. Izmaylov, J. Bloino, G. Zheng, J. L. Sonnenberg, M. Hada, 
 M. Ehara, K. Toyota, R. Fukuda, J. Hasegawa, M. Ishida, T. Nakajima, 
 Y. Honda, O. Kitao, H. Nakai, T. Vreven, J. A. Montgomery, Jr., 
 J. E. Peralta, F. Ogliaro, M. Bearpark, J. J. Heyd, E. Brothers, 
 K. N. Kudin, V. N. Staroverov, T. Keith, R. Kobayashi, J. Normand, 
 K. Raghavachari, A. Rendell, J. C. Burant, S. S. Iyengar, J. Tomasi, 
 M. Cossi, N. Rega, J. M. Millam, M. Klene, J. E. Knox, J. B. Cross, 
 V. Bakken, C. Adamo, J. Jaramillo, R. Gomperts, R. E. Stratmann, 
 O. Yazyev, A. J. Austin, R. Cammi, C. Pomelli, J. W. Ochterski, 
 R. L. Martin, K. Morokuma, V. G. Zakrzewski, G. A. Voth, 
 P. Salvador, J. J. Dannenberg, S. Dapprich, A. D. Daniels, 
 O. Farkas, J. B. Foresman, J. V. Ortiz, J. Cioslowski, 
 and D. J. Fox, Gaussian, Inc., Wallingford CT, 2013.
 
 ******************************************
 Gaussian 09:  ES64L-G09RevD.01 24-Apr-2013
                23-Apr-2024 
 ******************************************
 %nprocshared=20
 Will use up to   20 processors via shared memory.
 %mem=4GB
 %chk=32.chk
 ----------------------------------------------------------------------
 # opt freq=noraman b3lyp/6-311+g(d,p) pop=(npa,hirshfeld,chelpg,mbs) g
 eom=connectivity
 ----------------------------------------------------------------------
 1/14=-1,18=20,19=15,26=3,38=1,57=2/1,3;
 2/9=110,12=2,17=6,18=5,40=1/2;
 3/5=4,6=6,7=111,11=2,16=1,25=1,30=1,71=1,74=-5/1,2,3;
 4//1;
 5/5=2,38=5/2;
 6/7=2,8=2,9=2,10=2,15=8,20=3,27=100,28=1,40=-1,79=1/1,2,7;
 7//1,2,3,16;
 1/14=-1,18=20,19=15,26=3/3(2);
 2/9=110/2;
 99//99;
 2/9=110/2;
 3/5=4,6=6,7=111,11=2,16=1,25=1,30=1,71=1,74=-5/1,2,3;
 4/5=5,16=3,69=1/1;
 5/5=2,38=5/2;
 7//1,2,3,16;
 1/14=-1,18=20,19=15,26=3/3(-5);
 2/9=110/2;
 6/7=2,8=2,9=2,10=2,15=8,19=2,20=3,27=100,28=1,40=-1,79=1/1,2,7;
 99/9=1/99;
 -------------------
 Title Card Required
 -------------------
 Symbolic Z-matrix:
 Charge =  0 Multiplicity = 1
 C                     0.08755  -0.03891   0. 
 C                     1.48271  -0.03891   0. 
 C                     2.18025   1.16884   0. 
 C                     1.48259   2.37735  -0.0012 
 C                     0.08777   2.37727  -0.00168 
 C                    -0.60983   1.16907  -0.00068 
 H                    -0.46221  -0.99123   0.00045 
 H                     2.01759   3.304    -0.00175 
 H                    -1.67983   1.16909  -0.00044 
 O                    -0.62755   3.61551  -0.00292 
 H                    -0.78706   3.89435   0.90174 
 H                     2.01764  -0.9656    0. 
 C                     3.72025   1.16895   0.00089 
 O                     4.51218   2.11044   0.00103 
 O                     4.23514  -0.08655   0.00153 
 C                     5.66452  -0.04436   0.00234 
 H                     6.00565   0.47054   0.87607 
 H                     6.00664   0.47016  -0.87123 
 C                     6.22047  -1.4805    0.00297 
 H                     7.29     -1.44893   0.00343 
 H                     5.87846  -1.99497   0.87661 
 H                     5.87923  -1.99545  -0.87069 
 

 GradGradGradGradGradGradGradGradGradGradGradGradGradGradGradGradGradGrad
 Berny optimization.
 Initialization pass.
                           ----------------------------
                           !    Initial Parameters    !
                           ! (Angstroms and Degrees)  !
 --------------------------                            --------------------------
 ! Name  Definition              Value          Derivative Info.                !
 --------------------------------------------------------------------------------
 ! R1    R(1,2)                  1.3952         estimate D2E/DX2                !
 ! R2    R(1,6)                  1.3948         estimate D2E/DX2                !
 ! R3    R(1,7)                  1.0996         estimate D2E/DX2                !
 ! R4    R(2,3)                  1.3947         estimate D2E/DX2                !
 ! R5    R(2,12)                 1.07           estimate D2E/DX2                !
 ! R6    R(3,4)                  1.3954         estimate D2E/DX2                !
 ! R7    R(3,13)                 1.54           estimate D2E/DX2                !
 ! R8    R(4,5)                  1.3948         estimate D2E/DX2                !
 ! R9    R(4,8)                  1.07           estimate D2E/DX2                !
 ! R10   R(5,6)                  1.3951         estimate D2E/DX2                !
 ! R11   R(5,10)                 1.43           estimate D2E/DX2                !
 ! R12   R(6,9)                  1.07           estimate D2E/DX2                !
 ! R13   R(10,11)                0.96           estimate D2E/DX2                !
 ! R14   R(13,14)                1.2303         estimate D2E/DX2                !
 ! R15   R(13,15)                1.357          estimate D2E/DX2                !
 ! R16   R(15,16)                1.43           estimate D2E/DX2                !
 ! R17   R(16,17)                1.07           estimate D2E/DX2                !
 ! R18   R(16,18)                1.07           estimate D2E/DX2                !
 ! R19   R(16,19)                1.54           estimate D2E/DX2                !
 ! R20   R(19,20)                1.07           estimate D2E/DX2                !
 ! R21   R(19,21)                1.07           estimate D2E/DX2                !
 ! R22   R(19,22)                1.07           estimate D2E/DX2                !
 ! A1    A(2,1,6)              119.9985         estimate D2E/DX2                !
 ! A2    A(2,1,7)              119.9972         estimate D2E/DX2                !
 ! A3    A(6,1,7)              120.0043         estimate D2E/DX2                !
 ! A4    A(1,2,3)              120.0086         estimate D2E/DX2                !
 ! A5    A(1,2,12)             119.9957         estimate D2E/DX2                !
 ! A6    A(3,2,12)             119.9957         estimate D2E/DX2                !
 ! A7    A(2,3,4)              119.9942         estimate D2E/DX2                !
 ! A8    A(2,3,13)             120.0128         estimate D2E/DX2                !
 ! A9    A(4,3,13)             119.993          estimate D2E/DX2                !
 ! A10   A(3,4,5)              119.994          estimate D2E/DX2                !
 ! A11   A(3,4,8)              120.003          estimate D2E/DX2                !
 ! A12   A(5,4,8)              120.003          estimate D2E/DX2                !
 ! A13   A(4,5,6)              120.0047         estimate D2E/DX2                !
 ! A14   A(4,5,10)             120.0113         estimate D2E/DX2                !
 ! A15   A(6,5,10)             119.984          estimate D2E/DX2                !
 ! A16   A(1,6,5)              120.0            estimate D2E/DX2                !
 ! A17   A(1,6,9)              120.0            estimate D2E/DX2                !
 ! A18   A(5,6,9)              120.0            estimate D2E/DX2                !
 ! A19   A(5,10,11)            109.5            estimate D2E/DX2                !
 ! A20   A(3,13,14)            130.0733         estimate D2E/DX2                !
 ! A21   A(3,13,15)            112.2947         estimate D2E/DX2                !
 ! A22   A(14,13,15)           117.632          estimate D2E/DX2                !
 ! A23   A(13,15,16)           110.6079         estimate D2E/DX2                !
 ! A24   A(15,16,17)           109.4712         estimate D2E/DX2                !
 ! A25   A(15,16,18)           109.4712         estimate D2E/DX2                !
 ! A26   A(15,16,19)           109.4712         estimate D2E/DX2                !
 ! A27   A(17,16,18)           109.4712         estimate D2E/DX2                !
 ! A28   A(17,16,19)           109.4713         estimate D2E/DX2                !
 ! A29   A(18,16,19)           109.4712         estimate D2E/DX2                !
 ! A30   A(16,19,20)           109.4712         estimate D2E/DX2                !
 ! A31   A(16,19,21)           109.4712         estimate D2E/DX2                !
 ! A32   A(16,19,22)           109.4712         estimate D2E/DX2                !
 ! A33   A(20,19,21)           109.4713         estimate D2E/DX2                !
 ! A34   A(20,19,22)           109.4712         estimate D2E/DX2                !
 ! A35   A(21,19,22)           109.4712         estimate D2E/DX2                !
 ! D1    D(6,1,2,3)              0.0323         estimate D2E/DX2                !
 ! D2    D(6,1,2,12)          -179.9677         estimate D2E/DX2                !
 ! D3    D(7,1,2,3)           -179.9729         estimate D2E/DX2                !
 ! D4    D(7,1,2,12)             0.0271         estimate D2E/DX2                !
 ! D5    D(2,1,6,5)              0.0149         estimate D2E/DX2                !
 ! D6    D(2,1,6,9)           -179.9851         estimate D2E/DX2                !
 ! D7    D(7,1,6,5)           -179.9798         estimate D2E/DX2                !
 ! D8    D(7,1,6,9)              0.0202         estimate D2E/DX2                !
 ! D9    D(1,2,3,4)             -0.0568         estimate D2E/DX2                !
 ! D10   D(1,2,3,13)           179.9619         estimate D2E/DX2                !
 ! D11   D(12,2,3,4)           179.9432         estimate D2E/DX2                !
 ! D12   D(12,2,3,13)           -0.0381         estimate D2E/DX2                !
 ! D13   D(2,3,4,5)              0.0341         estimate D2E/DX2                !
 ! D14   D(2,3,4,8)           -179.9659         estimate D2E/DX2                !
 ! D15   D(13,3,4,5)          -179.9846         estimate D2E/DX2                !
 ! D16   D(13,3,4,8)             0.0154         estimate D2E/DX2                !
 ! D17   D(2,3,13,14)          180.0            estimate D2E/DX2                !
 ! D18   D(2,3,13,15)            0.0031         estimate D2E/DX2                !
 ! D19   D(4,3,13,14)            0.0187         estimate D2E/DX2                !
 ! D20   D(4,3,13,15)         -179.9782         estimate D2E/DX2                !
 ! D21   D(3,4,5,6)              0.0131         estimate D2E/DX2                !
 ! D22   D(3,4,5,10)          -179.9995         estimate D2E/DX2                !
 ! D23   D(8,4,5,6)           -179.9869         estimate D2E/DX2                !
 ! D24   D(8,4,5,10)             0.0005         estimate D2E/DX2                !
 ! D25   D(4,5,6,1)             -0.0376         estimate D2E/DX2                !
 ! D26   D(4,5,6,9)            179.9624         estimate D2E/DX2                !
 ! D27   D(10,5,6,1)           179.975          estimate D2E/DX2                !
 ! D28   D(10,5,6,9)            -0.025          estimate D2E/DX2                !
 ! D29   D(4,5,10,11)          -89.9199         estimate D2E/DX2                !
 ! D30   D(6,5,10,11)           90.0675         estimate D2E/DX2                !
 ! D31   D(3,13,15,16)         179.9996         estimate D2E/DX2                !
 ! D32   D(14,13,15,16)          0.0023         estimate D2E/DX2                !
 ! D33   D(13,15,16,17)         60.0034         estimate D2E/DX2                !
 ! D34   D(13,15,16,18)        -59.9966         estimate D2E/DX2                !
 ! D35   D(13,15,16,19)       -179.9965         estimate D2E/DX2                !
 ! D36   D(15,16,19,20)        179.9922         estimate D2E/DX2                !
 ! D37   D(15,16,19,21)        -60.0078         estimate D2E/DX2                !
 ! D38   D(15,16,19,22)         59.9922         estimate D2E/DX2                !
 ! D39   D(17,16,19,20)        -60.0078         estimate D2E/DX2                !
 ! D40   D(17,16,19,21)         59.9922         estimate D2E/DX2                !
 ! D41   D(17,16,19,22)        179.9922         estimate D2E/DX2                !
 ! D42   D(18,16,19,20)         59.9922         estimate D2E/DX2                !
 ! D43   D(18,16,19,21)        179.9922         estimate D2E/DX2                !
 ! D44   D(18,16,19,22)        -60.0078         estimate D2E/DX2                !
 --------------------------------------------------------------------------------
 Trust Radius=3.00D-01 FncErr=1.00D-07 GrdErr=1.00D-06
 Number of steps in this run=    111 maximum allowed number of steps=    132.
 GradGradGradGradGradGradGradGradGradGradGradGradGradGradGradGradGradGrad

                          Input orientation:                          
 ---------------------------------------------------------------------
 Center     Atomic      Atomic             Coordinates (Angstroms)
 Number     Number       Type             X           Y           Z
 ---------------------------------------------------------------------
      1          6           0        0.087549   -0.038911    0.000000
      2          6           0        1.482709   -0.038911    0.000000
      3          6           0        2.180247    1.168840    0.000000
      4          6           0        1.482593    2.377349   -0.001199
      5          6           0        0.087768    2.377271   -0.001678
      6          6           0       -0.609833    1.169065   -0.000682
      7          1           0       -0.462210   -0.991228    0.000450
      8          1           0        2.017590    3.303998   -0.001751
      9          1           0       -1.679833    1.169094   -0.000441
     10          8           0       -0.627546    3.615506   -0.002917
     11          1           0       -0.787060    3.894346    0.901740
     12          1           0        2.017639   -0.965598    0.000000
     13          6           0        3.720246    1.168953    0.000888
     14          8           0        4.512184    2.110439    0.001031
     15          8           0        4.235138   -0.086554    0.001534
     16          6           0        5.664515   -0.044356    0.002337
     17          1           0        6.005646    0.470545    0.876068
     18          1           0        6.006639    0.470158   -0.871234
     19          6           0        6.220469   -1.480502    0.002970
     20          1           0        7.290003   -1.448928    0.003433
     21          1           0        5.878456   -1.994974    0.876610
     22          1           0        5.879227   -1.995446   -0.870693
 ---------------------------------------------------------------------
                    Distance matrix (angstroms):
                    1          2          3          4          5
     1  C    0.000000
     2  C    1.395160   0.000000
     3  C    2.416205   1.394712   0.000000
     4  C    2.790065   2.416260   1.395427   0.000000
     5  C    2.416183   2.789946   2.416356   1.394825   0.000000
     6  C    1.394829   2.416183   2.790080   2.416236   1.395138
     7  H    1.099610   2.165553   3.412986   3.889675   3.413102
     8  H    3.860065   3.385431   2.141345   1.070000   2.140803
     9  H    2.140774   3.385402   3.860080   3.385383   2.141053
    10  O    3.723725   4.219946   3.724229   2.446573   1.430000
    11  H    4.128992   4.629847   4.128731   2.875395   1.970533
    12  H    2.141027   1.070000   2.140623   3.385495   3.859946
    13  C    3.828241   2.542737   1.540000   2.543093   3.828178
    14  O    4.919055   3.714489   2.514864   3.041327   4.432456
    15  O    4.147863   2.752842   2.408027   3.694230   4.824016
    16  C    5.576970   4.181811   3.689442   4.832510   6.079836
    17  H    6.004241   4.635084   3.986075   4.986333   6.279118
    18  H    6.004484   4.635099   3.986036   4.986114   6.279032
    19  C    6.300072   4.952228   4.831399   6.109870   7.245168
    20  H    7.339176   5.976021   5.741283   6.954598   8.155490
    21  H    6.174887   4.890524   4.945191   6.261898   7.308898
    22  H    6.174923   4.890349   4.945025   6.261610   7.308683
                    6          7          8          9         10
     6  C    0.000000
     7  H    2.165331   0.000000
     8  H    3.385453   4.959675   0.000000
     9  H    1.070000   2.479838   4.269514   0.000000
    10  O    2.446505   4.609701   2.663416   2.663127   0.000000
    11  H    2.876269   4.978622   3.005139   3.006322   0.960000
    12  H    3.385321   2.479982   4.269597   4.269451   5.289946
    13  C    4.330080   4.707369   2.730836   5.400080   4.988882
    14  O    5.207807   5.862161   2.765428   6.263163   5.355565
    15  O    5.005031   4.783672   4.051342   6.046780   6.111544
    16  C    6.390607   6.199463   4.950915   7.443919   7.279056
    17  H    6.709783   6.688546   4.970273   7.766777   7.393418
    18  H    6.709995   6.688908   4.969825   7.767152   7.393213
    19  C    7.326203   6.700567   6.368333   8.332775   8.536079
    20  H    8.322338   7.765713   7.098498   9.344090   9.398729
    21  H    7.271773   6.479136   6.614901   8.240648   8.635920
    22  H    7.271792   6.479288   6.614485   8.240816   8.635619
                   11         12         13         14         15
    11  H    0.000000
    12  H    5.683179   0.000000
    13  C    5.343698   2.730417   0.000000
    14  O    5.663531   3.960399   1.230269   0.000000
    15  O    6.471507   2.385377   1.356986   2.214392   0.000000
    16  C    7.612169   3.761436   2.291790   2.443565   1.430000
    17  H    7.606834   4.328302   2.544949   2.384402   2.051796
    18  H    7.811711   4.328113   2.544897   2.384274   2.051796
    19  C    8.877062   4.234255   3.642901   3.976569   2.425826
    20  H    9.726071   5.294473   4.426790   4.515017   3.344886
    21  H    8.894594   4.090717   3.928764   4.414493   2.666143
    22  H    9.070311   4.090300   3.928647   4.414408   2.666023
                   16         17         18         19         20
    16  C    0.000000
    17  H    1.070000   0.000000
    18  H    1.070000   1.747303   0.000000
    19  C    1.540000   2.148263   2.148263   0.000000
    20  H    2.148263   2.468895   2.468797   1.070000   0.000000
    21  H    2.148263   2.468798   3.024610   1.070000   1.747303
    22  H    2.148263   3.024611   2.468895   1.070000   1.747303
                   21         22
    21  H    0.000000
    22  H    1.747303   0.000000
 Stoichiometry    C9H10O3
 Framework group  C1[X(C9H10O3)]
 Deg. of freedom    60
 Full point group                 C1      NOp   1
 Largest Abelian subgroup         C1      NOp   1
 Largest concise Abelian subgroup C1      NOp   1
                         Standard orientation:                         
 ---------------------------------------------------------------------
 Center     Atomic      Atomic             Coordinates (Angstroms)
 Number     Number       Type             X           Y           Z
 ---------------------------------------------------------------------
      1          6           0        1.773827    1.917145   -0.000584
      2          6           0        0.499888    1.348331    0.000588
      3          6           0        0.355320   -0.038803   -0.012897
      4          6           0        1.485023   -0.857789   -0.028761
      5          6           0        2.758621   -0.289035   -0.030411
      6          6           0        2.903067    1.098530   -0.015925
      7          1           0        1.887591    3.010799    0.010499
      8          1           0        1.374273   -1.921986   -0.039659
      9          1           0        3.880111    1.534746   -0.016583
     10          8           0        3.916567   -1.127961   -0.046677
     11          1           0        4.180885   -1.326836    0.854536
     12          1           0       -0.366345    1.976354    0.011833
     13          6           0       -1.050823   -0.666781   -0.010717
     14          8           0       -1.390136   -1.849289   -0.020877
     15          8           0       -2.032805    0.269635    0.004989
     16          6           0       -3.320781   -0.351667    0.006501
     17          1           0       -3.417542   -0.969877    0.874460
     18          1           0       -3.428246   -0.951939   -0.872717
     19          6           0       -4.413898    0.732942    0.024332
     20          1           0       -5.377629    0.268053    0.025326
     21          1           0       -4.306516    1.333129    0.903619
     22          1           0       -4.317053    1.351235   -0.843558
 ---------------------------------------------------------------------
 Rotational constants (GHZ):      2.4066190      0.4532970      0.3836948
 Standard basis: 6-311+G(d,p) (5D, 7F)
 There are   336 symmetry adapted cartesian basis functions of A   symmetry.
 There are   324 symmetry adapted basis functions of A   symmetry.
   324 basis functions,   512 primitive gaussians,   336 cartesian basis functions
    44 alpha electrons       44 beta electrons
       nuclear repulsion energy       661.1056138736 Hartrees.
 NAtoms=   22 NActive=   22 NUniq=   22 SFac= 1.00D+00 NAtFMM=   60 NAOKFM=F Big=F
 Integral buffers will be    131072 words long.
 Raffenetti 2 integral format.
 Two-electron integral symmetry is turned on.
 One-electron integrals computed using PRISM.
 NBasis=   324 RedAO= T EigKep=  1.29D-06  NBF=   324
 NBsUse=   324 1.00D-06 EigRej= -1.00D+00 NBFU=   324
 ExpMin= 4.38D-02 ExpMax= 8.59D+03 ExpMxC= 1.30D+03 IAcc=2 IRadAn=         4 AccDes= 0.00D+00
 Harris functional with IExCor=  402 and IRadAn=       4 diagonalized for initial guess.
 HarFok:  IExCor=  402 AccDes= 0.00D+00 IRadAn=         4 IDoV= 1 UseB2=F ITyADJ=14
 ICtDFT=  3500011 ScaDFX=  1.000000  1.000000  1.000000  1.000000
 FoFCou: FMM=F IPFlag=           0 FMFlag=      100000 FMFlg1=           0
         NFxFlg=           0 DoJE=T BraDBF=F KetDBF=T FulRan=T
         wScrn=  0.000000 ICntrl=     500 IOpCl=  0 I1Cent=   200000004 NGrid=           0
         NMat0=    1 NMatS0=      1 NMatT0=    0 NMatD0=    1 NMtDS0=    0 NMtDT0=    0
 Petite list used in FoFCou.
 Requested convergence on RMS density matrix=1.00D-08 within 128 cycles.
 Requested convergence on MAX density matrix=1.00D-06.
 Requested convergence on             energy=1.00D-06.
 No special actions if energy rises.
 SCF Done:  E(RB3LYP) =  -574.816725961     A.U. after   16 cycles
            NFock= 16  Conv=0.28D-08     -V/T= 2.0040

 **********************************************************************

            Population analysis using the SCF density.

 **********************************************************************

 Orbital symmetries:
       Occupied  (A) (A) (A) (A) (A) (A) (A) (A) (A) (A) (A) (A)
                 (A) (A) (A) (A) (A) (A) (A) (A) (A) (A) (A) (A)
                 (A) (A) (A) (A) (A) (A) (A) (A) (A) (A) (A) (A)
                 (A) (A) (A) (A) (A) (A) (A) (A)
       Virtual   (A) (A) (A) (A) (A) (A) (A) (A) (A) (A) (A) (A)
                 (A) (A) (A) (A) (A) (A) (A) (A) (A) (A) (A) (A)
                 (A) (A) (A) (A) (A) (A) (A) (A) (A) (A) (A) (A)
                 (A) (A) (A) (A) (A) (A) (A) (A) (A) (A) (A) (A)
                 (A) (A) (A) (A) (A) (A) (A) (A) (A) (A) (A) (A)
                 (A) (A) (A) (A) (A) (A) (A) (A) (A) (A) (A) (A)
                 (A) (A) (A) (A) (A) (A) (A) (A) (A) (A) (A) (A)
                 (A) (A) (A) (A) (A) (A) (A) (A) (A) (A) (A) (A)
                 (A) (A) (A) (A) (A) (A) (A) (A) (A) (A) (A) (A)
                 (A) (A) (A) (A) (A) (A) (A) (A) (A) (A) (A) (A)
                 (A) (A) (A) (A) (A) (A) (A) (A) (A) (A) (A) (A)
                 (A) (A) (A) (A) (A) (A) (A) (A) (A) (A) (A) (A)
                 (A) (A) (A) (A) (A) (A) (A) (A) (A) (A) (A) (A)
                 (A) (A) (A) (A) (A) (A) (A) (A) (A) (A) (A) (A)
                 (A) (A) (A) (A) (A) (A) (A) (A) (A) (A) (A) (A)
                 (A) (A) (A) (A) (A) (A) (A) (A) (A) (A) (A) (A)
                 (A) (A) (A) (A) (A) (A) (A) (A) (A) (A) (A) (A)
                 (A) (A) (A) (A) (A) (A) (A) (A) (A) (A) (A) (A)
                 (A) (A) (A) (A) (A) (A) (A) (A) (A) (A) (A) (A)
                 (A) (A) (A) (A) (A) (A) (A) (A) (A) (A) (A) (A)
                 (A) (A) (A) (A) (A) (A) (A) (A) (A) (A) (A) (A)
                 (A) (A) (A) (A) (A) (A) (A) (A) (A) (A) (A) (A)
                 (A) (A) (A) (A) (A) (A) (A) (A) (A) (A) (A) (A)
                 (A) (A) (A) (A)
 The electronic state is 1-A.
 Alpha  occ. eigenvalues --  -19.17433 -19.15162 -19.11777 -10.31580 -10.25142
 Alpha  occ. eigenvalues --  -10.22387 -10.21301 -10.19837 -10.19568 -10.19514
 Alpha  occ. eigenvalues --  -10.19380 -10.16438  -1.11876  -1.04853  -1.01644
 Alpha  occ. eigenvalues --   -0.87942  -0.79338  -0.77040  -0.76048  -0.67580
 Alpha  occ. eigenvalues --   -0.63150  -0.62578  -0.58243  -0.56056  -0.51706
 Alpha  occ. eigenvalues --   -0.50607  -0.50063  -0.49088  -0.47095  -0.45324
 Alpha  occ. eigenvalues --   -0.43701  -0.42897  -0.41675  -0.40497  -0.39063
 Alpha  occ. eigenvalues --   -0.38278  -0.37817  -0.36333  -0.35347  -0.31805
 Alpha  occ. eigenvalues --   -0.31485  -0.28770  -0.27915  -0.26771
 Alpha virt. eigenvalues --   -0.06521  -0.02995  -0.00568   0.00325   0.01131
 Alpha virt. eigenvalues --    0.02866   0.03097   0.03126   0.03735   0.04809
 Alpha virt. eigenvalues --    0.05122   0.05624   0.05924   0.07210   0.07848
 Alpha virt. eigenvalues --    0.08029   0.08453   0.08681   0.10076   0.11178
 Alpha virt. eigenvalues --    0.12134   0.12330   0.12763   0.13062   0.13551
 Alpha virt. eigenvalues --    0.13860   0.14437   0.14987   0.15363   0.16260
 Alpha virt. eigenvalues --    0.16443   0.17733   0.17995   0.18440   0.18770
 Alpha virt. eigenvalues --    0.19543   0.19911   0.20013   0.20225   0.20643
 Alpha virt. eigenvalues --    0.21131   0.21303   0.21709   0.22845   0.23290
 Alpha virt. eigenvalues --    0.23415   0.24044   0.24566   0.26224   0.26362
 Alpha virt. eigenvalues --    0.27079   0.27367   0.27598   0.28219   0.29154
 Alpha virt. eigenvalues --    0.29556   0.30593   0.31033   0.31516   0.31625
 Alpha virt. eigenvalues --    0.32586   0.33614   0.34105   0.35764   0.35997
 Alpha virt. eigenvalues --    0.37463   0.39137   0.39897   0.40180   0.40495
 Alpha virt. eigenvalues --    0.43407   0.45208   0.46960   0.48754   0.49181
 Alpha virt. eigenvalues --    0.50578   0.51380   0.51712   0.53336   0.54143
 Alpha virt. eigenvalues --    0.54335   0.56154   0.57320   0.57782   0.58220
 Alpha virt. eigenvalues --    0.60117   0.60481   0.61094   0.62749   0.63473
 Alpha virt. eigenvalues --    0.64398   0.66178   0.66536   0.67293   0.67666
 Alpha virt. eigenvalues --    0.68523   0.69427   0.70864   0.72144   0.73113
 Alpha virt. eigenvalues --    0.74207   0.75056   0.77843   0.78949   0.80794
 Alpha virt. eigenvalues --    0.81963   0.82030   0.86259   0.86395   0.89077
 Alpha virt. eigenvalues --    0.90482   0.91676   0.92280   0.94907   0.95654
 Alpha virt. eigenvalues --    0.97655   0.98546   0.99467   1.00486   1.03542
 Alpha virt. eigenvalues --    1.04174   1.05454   1.05664   1.07929   1.08276
 Alpha virt. eigenvalues --    1.10117   1.11283   1.11816   1.16109   1.17545
 Alpha virt. eigenvalues --    1.19990   1.22916   1.24278   1.26376   1.26439
 Alpha virt. eigenvalues --    1.26859   1.29894   1.32670   1.34840   1.38485
 Alpha virt. eigenvalues --    1.42147   1.45925   1.47858   1.49407   1.50235
 Alpha virt. eigenvalues --    1.50546   1.51264   1.52748   1.53381   1.55078
 Alpha virt. eigenvalues --    1.56232   1.57083   1.57799   1.59391   1.61314
 Alpha virt. eigenvalues --    1.62492   1.63254   1.66033   1.66116   1.66757
 Alpha virt. eigenvalues --    1.69648   1.71699   1.72521   1.74451   1.74716
 Alpha virt. eigenvalues --    1.75298   1.75899   1.81539   1.85557   1.88185
 Alpha virt. eigenvalues --    1.89964   1.90180   1.90608   1.91027   1.92930
 Alpha virt. eigenvalues --    1.97698   1.98561   1.98986   1.99601   2.00268
 Alpha virt. eigenvalues --    2.03762   2.04088   2.07074   2.09221   2.09788
 Alpha virt. eigenvalues --    2.15627   2.18393   2.23362   2.23922   2.26751
 Alpha virt. eigenvalues --    2.26819   2.31899   2.36650   2.39252   2.41070
 Alpha virt. eigenvalues --    2.44381   2.47966   2.49138   2.52928   2.55532
 Alpha virt. eigenvalues --    2.57012   2.58709   2.61055   2.61328   2.62335
 Alpha virt. eigenvalues --    2.64150   2.64603   2.66457   2.66983   2.69554
 Alpha virt. eigenvalues --    2.71668   2.73441   2.74374   2.75866   2.77017
 Alpha virt. eigenvalues --    2.78617   2.79240   2.82086   2.83591   2.84131
 Alpha virt. eigenvalues --    2.84418   2.86400   2.90708   2.93292   2.98105
 Alpha virt. eigenvalues --    3.03023   3.06159   3.08620   3.09894   3.10723
 Alpha virt. eigenvalues --    3.13923   3.19236   3.20344   3.23453   3.28498
 Alpha virt. eigenvalues --    3.30364   3.30589   3.34729   3.35805   3.36899
 Alpha virt. eigenvalues --    3.49655   3.55928   3.58624   3.61729   3.67002
 Alpha virt. eigenvalues --    3.73955   3.82960   3.85221   3.85794   3.86407
 Alpha virt. eigenvalues --    3.99094   4.04332   4.07638   4.10853   4.13585
 Alpha virt. eigenvalues --    4.16197   4.26072   4.32175   4.83057   4.97327
 Alpha virt. eigenvalues --    5.05467   5.12191   5.23136   5.34162   5.39955
 Alpha virt. eigenvalues --    5.62448   5.68523   5.85044  23.56863  23.79530
 Alpha virt. eigenvalues --   23.88740  23.90150  23.93968  24.02761  24.05903
 Alpha virt. eigenvalues --   24.07279  24.16998  49.90923  49.92309  50.02842
          Condensed to atoms (all electrons):
               1          2          3          4          5          6
     1  C    9.094405  -3.063144   0.571244  -0.840612   1.437621  -0.424929
     2  C   -3.063144  11.310731   0.304609  -2.368979   0.099099  -0.279208
     3  C    0.571244   0.304609  20.214692  -4.022705   2.461245  -1.532406
     4  C   -0.840612  -2.368979  -4.022705  15.354409  -4.577740   0.073453
     5  C    1.437621   0.099099   2.461245  -4.577740  10.737272  -1.772292
     6  C   -0.424929  -0.279208  -1.532406   0.073453  -1.772292   8.276960
     7  H    0.332863  -0.016798  -0.015160   0.017876  -0.040165   0.033382
     8  H   -0.017659   0.014777  -0.131765   0.470286  -0.141458  -0.003307
     9  H   -0.006008  -0.028932   0.035467  -0.043047  -0.018408   0.416031
    10  O   -0.005889  -0.008339  -0.102679  -0.035546   0.402412  -0.244117
    11  H   -0.003585  -0.004252  -0.000993  -0.058041   0.067520   0.004956
    12  H   -0.039578   0.386918  -0.113060  -0.000866  -0.012017   0.011356
    13  C   -0.956195  -0.233252 -11.323666   2.758896  -2.233477   1.153485
    14  O    0.077716  -0.021273   0.078953  -0.070146   0.034175  -0.012502
    15  O    0.189238   0.092720  -0.646046  -0.203943   0.017644  -0.020403
    16  C    0.050146   0.065068  -1.262279  -0.021099  -0.068814   0.021192
    17  H   -0.001282   0.005768   0.029666  -0.008131  -0.001512   0.000016
    18  H   -0.001031   0.005810   0.031814  -0.008527  -0.001067  -0.000024
    19  C   -0.017865  -0.067687  -0.076389   0.078984  -0.013133   0.006044
    20  H   -0.000197  -0.001742   0.005788   0.000291   0.000020  -0.000004
    21  H   -0.000122   0.001244  -0.000645  -0.001159  -0.000182   0.000014
    22  H   -0.000187   0.000991  -0.000694  -0.001045  -0.000188   0.000011
               7          8          9         10         11         12
     1  C    0.332863  -0.017659  -0.006008  -0.005889  -0.003585  -0.039578
     2  C   -0.016798   0.014777  -0.028932  -0.008339  -0.004252   0.386918
     3  C   -0.015160  -0.131765   0.035467  -0.102679  -0.000993  -0.113060
     4  C    0.017876   0.470286  -0.043047  -0.035546  -0.058041  -0.000866
     5  C   -0.040165  -0.141458  -0.018408   0.402412   0.067520  -0.012017
     6  C    0.033382  -0.003307   0.416031  -0.244117   0.004956   0.011356
     7  H    0.533999   0.000059  -0.007375  -0.000466   0.000022  -0.006969
     8  H    0.000059   0.486377  -0.000116  -0.002653   0.000634  -0.000111
     9  H   -0.007375  -0.000116   0.514747  -0.004898   0.000551  -0.000247
    10  O   -0.000466  -0.002653  -0.004898   8.018200   0.274771   0.000142
    11  H    0.000022   0.000634   0.000551   0.274771   0.450377  -0.000003
    12  H   -0.006969  -0.000111  -0.000247   0.000142  -0.000003   0.501848
    13  C    0.033380   0.161556   0.004905   0.046374  -0.001336   0.111944
    14  O   -0.000026   0.003730  -0.000001  -0.000111  -0.000039  -0.000757
    15  O    0.000220   0.002436   0.000045   0.000057  -0.000009   0.007907
    16  C    0.000767   0.005513   0.000046   0.000516  -0.000042   0.001427
    17  H    0.000000  -0.000006   0.000000   0.000000   0.000000  -0.000002
    18  H    0.000000  -0.000003   0.000000   0.000000   0.000000  -0.000001
    19  C    0.000058  -0.000047  -0.000007   0.000029   0.000000   0.004878
    20  H    0.000000   0.000000   0.000000   0.000000   0.000000  -0.000006
    21  H    0.000000   0.000000   0.000000   0.000000   0.000000   0.000007
    22  H    0.000000   0.000000   0.000000   0.000000   0.000000   0.000009
              13         14         15         16         17         18
     1  C   -0.956195   0.077716   0.189238   0.050146  -0.001282  -0.001031
     2  C   -0.233252  -0.021273   0.092720   0.065068   0.005768   0.005810
     3  C  -11.323666   0.078953  -0.646046  -1.262279   0.029666   0.031814
     4  C    2.758896  -0.070146  -0.203943  -0.021099  -0.008131  -0.008527
     5  C   -2.233477   0.034175   0.017644  -0.068814  -0.001512  -0.001067
     6  C    1.153485  -0.012502  -0.020403   0.021192   0.000016  -0.000024
     7  H    0.033380  -0.000026   0.000220   0.000767   0.000000   0.000000
     8  H    0.161556   0.003730   0.002436   0.005513  -0.000006  -0.000003
     9  H    0.004905  -0.000001   0.000045   0.000046   0.000000   0.000000
    10  O    0.046374  -0.000111   0.000057   0.000516   0.000000   0.000000
    11  H   -0.001336  -0.000039  -0.000009  -0.000042   0.000000   0.000000
    12  H    0.111944  -0.000757   0.007907   0.001427  -0.000002  -0.000001
    13  C   16.153504   0.289753   0.178165   0.471723  -0.019496  -0.021768
    14  O    0.289753   8.167709  -0.185605  -0.129954  -0.008565  -0.008417
    15  O    0.178165  -0.185605   8.483130   0.393859  -0.032423  -0.031922
    16  C    0.471723  -0.129954   0.393859   5.687258   0.422701   0.422892
    17  H   -0.019496  -0.008565  -0.032423   0.422701   0.539494  -0.036866
    18  H   -0.021768  -0.008417  -0.031922   0.422892  -0.036866   0.537940
    19  C    0.199248   0.047412  -0.168557   0.004657  -0.043747  -0.044192
    20  H    0.012239   0.000240   0.013507  -0.077764  -0.003682  -0.003702
    21  H   -0.011732  -0.000543  -0.003072  -0.017235  -0.008030   0.007799
    22  H   -0.011192  -0.000550  -0.003105  -0.017666   0.007810  -0.007959
              19         20         21         22
     1  C   -0.017865  -0.000197  -0.000122  -0.000187
     2  C   -0.067687  -0.001742   0.001244   0.000991
     3  C   -0.076389   0.005788  -0.000645  -0.000694
     4  C    0.078984   0.000291  -0.001159  -0.001045
     5  C   -0.013133   0.000020  -0.000182  -0.000188
     6  C    0.006044  -0.000004   0.000014   0.000011
     7  H    0.000058   0.000000   0.000000   0.000000
     8  H   -0.000047   0.000000   0.000000   0.000000
     9  H   -0.000007   0.000000   0.000000   0.000000
    10  O    0.000029   0.000000   0.000000   0.000000
    11  H    0.000000   0.000000   0.000000   0.000000
    12  H    0.004878  -0.000006   0.000007   0.000009
    13  C    0.199248   0.012239  -0.011732  -0.011192
    14  O    0.047412   0.000240  -0.000543  -0.000550
    15  O   -0.168557   0.013507  -0.003072  -0.003105
    16  C    0.004657  -0.077764  -0.017235  -0.017666
    17  H   -0.043747  -0.003682  -0.008030   0.007810
    18  H   -0.044192  -0.003702   0.007799  -0.007959
    19  C    5.376872   0.433480   0.408860   0.409128
    20  H    0.433480   0.526157  -0.025700  -0.025576
    21  H    0.408860  -0.025700   0.538498  -0.029492
    22  H    0.409128  -0.025576  -0.029492   0.537569
 Mulliken charges:
               1
     1  C   -0.374948
     2  C   -0.194127
     3  C    1.495009
     4  C   -0.492608
     5  C   -0.376554
     6  C    0.292291
     7  H    0.134333
     8  H    0.151757
     9  H    0.137249
    10  O   -0.337802
    11  H    0.269469
    12  H    0.147181
    13  C   -0.763058
    14  O   -0.261199
    15  O   -0.083841
    16  C    0.047087
    17  H    0.158287
    18  H    0.159225
    19  C   -0.538027
    20  H    0.146649
    21  H    0.141490
    22  H    0.142135
 Sum of Mulliken charges =   0.00000
 Mulliken charges with hydrogens summed into heavy atoms:
               1
     1  C   -0.240615
     2  C   -0.046946
     3  C    1.495009
     4  C   -0.340851
     5  C   -0.376554
     6  C    0.429540
    10  O   -0.068333
    13  C   -0.763058
    14  O   -0.261199
    15  O   -0.083841
    16  C    0.364599
    19  C   -0.107752
 Electronic spatial extent (au):  <R**2>=           2792.1818
 Charge=              0.0000 electrons
 Dipole moment (field-independent basis, Debye):
    X=             -0.2111    Y=              2.4581    Z=              1.5442  Tot=              2.9105
 Quadrupole moment (field-independent basis, Debye-Ang):
   XX=            -61.7685   YY=            -72.4745   ZZ=            -70.9227
   XY=              0.6708   XZ=              6.9590   YZ=             -2.4788
 Traceless Quadrupole moment (field-independent basis, Debye-Ang):
   XX=              6.6201   YY=             -4.0859   ZZ=             -2.5341
   XY=              0.6708   XZ=              6.9590   YZ=             -2.4788
 Octapole moment (field-independent basis, Debye-Ang**2):
  XXX=            -34.4477  YYY=             13.6194  ZZZ=              1.9213  XYY=             15.4489
  XXY=              3.9784  XXZ=             30.9756  XZZ=             -2.3819  YZZ=             -8.4445
  YYZ=              3.6839  XYZ=            -10.3864
 Hexadecapole moment (field-independent basis, Debye-Ang**3):
 XXXX=          -2810.1929 YYYY=           -608.0805 ZZZZ=            -91.1615 XXXY=             45.0029
 XXXZ=            137.4606 YYYX=            -15.1184 YYYZ=             -6.0306 ZZZX=              9.0379
 ZZZY=             -3.0168 XXYY=           -590.1486 XXZZ=           -492.7125 YYZZ=           -120.9936
 XXYZ=            -45.8802 YYXZ=             15.3228 ZZXY=            -16.4127
 N-N= 6.611056138736D+02 E-N=-2.665104778844D+03  KE= 5.725197019452D+02
 There are a total of      181882 grid points.
 ElSum from          density=       88.0000663691
 ElSum from atomic densities=       88.0003692323

 Hirshfeld populations at iteration   1 (CX, CA, CB, DipXYZ):
               1          2          3          4          5          6
     1  C    0.000000   3.019329   3.019329   0.008070   0.065815  -0.003696
     2  C    0.000000   3.020212   3.020212  -0.039117   0.039100  -0.002750
     3  C    0.000000   3.004279   3.004279  -0.059700  -0.032892  -0.003677
     4  C    0.000000   3.019797   3.019797  -0.008913  -0.055355  -0.009279
     5  C    0.000000   2.963449   2.963449   0.120375  -0.088712  -0.011316
     6  C    0.000000   3.021830   3.021830   0.055159   0.032210  -0.008785
     7  H    0.000002   0.472410   0.472410   0.016247   0.161981   0.000765
     8  H    0.000001   0.471202   0.471202  -0.006472  -0.160111  -0.003328
     9  H    0.000001   0.472732   0.472732   0.146058   0.079534  -0.001574
    10  O    0.000003   4.116314   4.116314  -0.103218   0.070878   0.146940
    11  H    0.000001   0.412752   0.412752   0.065823  -0.050259   0.201433
    12  H    0.000001   0.475863   0.475863  -0.107148   0.116212   0.001270
    13  C    0.000000   2.888905   2.888905  -0.038091   0.054246  -0.001098
    14  O    0.000003   4.140082   4.140082  -0.023558   0.114854   0.000091
    15  O    0.000000   4.062807   4.062807  -0.041469  -0.110744  -0.001413
    16  C    0.000000   2.989463   2.989463   0.043907   0.055112  -0.000134
    17  H    0.000001   0.479759   0.479759  -0.041690  -0.076114   0.128663
    18  H    0.000001   0.479563   0.479563  -0.043179  -0.073558  -0.130104
    19  C    0.000000   3.050432   3.050432  -0.010908  -0.017616  -0.000401
    20  H    0.000000   0.477557   0.477557  -0.138088  -0.070133   0.000025
    21  H    0.000000   0.480714   0.480714   0.012246   0.082177   0.126713
    22  H    0.000000   0.480583   0.480583   0.010772   0.084839  -0.125386
       Tot   0.000016  44.000033  44.000033  -0.182894   0.221463   0.302960

 Dip from Atomic Chgs              0.100011   0.745483   0.304510
         Total Dipole             -0.082884   0.966946   0.607469

 Hirshfeld charges, spin densities, dipoles, and CM5 charges using IRadAn=      4:
              Q-H        S-H        Dx         Dy         Dz        Q-CM5   
     1  C   -0.038658   0.000000   0.008070   0.065815  -0.003696  -0.092385
     2  C   -0.040425   0.000000  -0.039117   0.039100  -0.002750  -0.093422
     3  C   -0.008558   0.000000  -0.059700  -0.032892  -0.003677  -0.012559
     4  C   -0.039594   0.000000  -0.008913  -0.055355  -0.009279  -0.088564
     5  C    0.073102   0.000000   0.120375  -0.088712  -0.011316   0.081605
     6  C   -0.043660   0.000000   0.055159   0.032210  -0.008785  -0.096384
     7  H    0.055181   0.000000   0.016247   0.161981   0.000765   0.108907
     8  H    0.057597   0.000000  -0.006472  -0.160111  -0.003328   0.120566
     9  H    0.054536   0.000000   0.146058   0.079534  -0.001574   0.114684
    10  O   -0.232627   0.000000  -0.103218   0.070878   0.146940  -0.429487
    11  H    0.174497   0.000000   0.065823  -0.050259   0.201433   0.348220
    12  H    0.048274   0.000000  -0.107148   0.116212   0.001270   0.111878
    13  C    0.222190   0.000000  -0.038091   0.054246  -0.001098   0.277957
    14  O   -0.280164   0.000000  -0.023558   0.114854   0.000091  -0.330571
    15  O   -0.125614   0.000000  -0.041469  -0.110744  -0.001413  -0.209614
    16  C    0.021074   0.000000   0.043907   0.055112  -0.000134  -0.066926
    17  H    0.040482   0.000000  -0.041690  -0.076114   0.128663   0.111665
    18  H    0.040874   0.000000  -0.043179  -0.073558  -0.130104   0.112058
    19  C   -0.100864   0.000000  -0.010908  -0.017616  -0.000401  -0.256611
    20  H    0.044885   0.000000  -0.138088  -0.070133   0.000025   0.099066
    21  H    0.038572   0.000000   0.012246   0.082177   0.126713   0.094793
    22  H    0.038833   0.000000   0.010772   0.084839  -0.125386   0.095055
       Tot  -0.000066   0.000000  -0.182894   0.221463   0.302960  -0.000066
 Hirshfeld charges with hydrogens summed into heavy atoms:
              Q-H       Q-CM5   
     1  C    0.016523   0.016522
     2  C    0.007849   0.018457
     3  C   -0.008558  -0.012559
     4  C    0.018003   0.032001
     5  C    0.073102   0.081605
     6  C    0.010876   0.018300
    10  O   -0.058131  -0.081266
    13  C    0.222190   0.277957
    14  O   -0.280164  -0.330571
    15  O   -0.125614  -0.209614
    16  C    0.102430   0.156797
    19  C    0.021427   0.032304
 
 EQQ= 0.000000000000E+00 EQD= 0.000000000000E+00 EDD= 0.579879916004E-02
 EQQ+QD+DD= 0.579879916004E-02
 
          MBS Condensed to atoms (all electrons):
               1          2          3          4          5          6
     1  C    4.820846   0.505327  -0.030479  -0.010412  -0.027900   0.500454
     2  C    0.505327   4.828673   0.497435  -0.031685  -0.011771  -0.031140
     3  C   -0.030479   0.497435   4.817687   0.495384  -0.026516  -0.010587
     4  C   -0.010412  -0.031685   0.495384   4.844461   0.499254  -0.037467
     5  C   -0.027900  -0.011771  -0.026516   0.499254   4.699790   0.495729
     6  C    0.500454  -0.031140  -0.010587  -0.037467   0.495729   4.843195
     7  H    0.387957  -0.025079   0.001459   0.000014   0.001363  -0.024881
     8  H    0.000062   0.001500  -0.024322   0.385684  -0.024324   0.001424
     9  H   -0.024061   0.001537   0.000069   0.001482  -0.025562   0.389073
    10  O    0.000332   0.000004   0.000326  -0.022738   0.287714  -0.022801
    11  H   -0.000044   0.000006  -0.000043   0.000097  -0.032461   0.000131
    12  H   -0.024518   0.389785  -0.025776   0.001498   0.000071   0.001505
    13  C    0.000772  -0.023650   0.374850  -0.024106   0.000743  -0.000004
    14  O   -0.000001   0.000198  -0.018469  -0.000915   0.000002   0.000000
    15  O    0.000012  -0.002714  -0.029823   0.000255  -0.000001   0.000000
    16  C    0.000000   0.000056   0.001488  -0.000013   0.000000   0.000000
    17  H    0.000000  -0.000003   0.000003   0.000001   0.000000   0.000000
    18  H    0.000000  -0.000003   0.000003   0.000001   0.000000   0.000000
    19  C    0.000000  -0.000001  -0.000007   0.000000   0.000000   0.000000
    20  H    0.000000   0.000000   0.000000   0.000000   0.000000   0.000000
    21  H    0.000000  -0.000001  -0.000002   0.000000   0.000000   0.000000
    22  H    0.000000  -0.000001  -0.000002   0.000000   0.000000   0.000000
               7          8          9         10         11         12
     1  C    0.387957   0.000062  -0.024061   0.000332  -0.000044  -0.024518
     2  C   -0.025079   0.001500   0.001537   0.000004   0.000006   0.389785
     3  C    0.001459  -0.024322   0.000069   0.000326  -0.000043  -0.025776
     4  C    0.000014   0.385684   0.001482  -0.022738   0.000097   0.001498
     5  C    0.001363  -0.024324  -0.025562   0.287714  -0.032461   0.000071
     6  C   -0.024881   0.001424   0.389073  -0.022801   0.000131   0.001505
     7  H    0.555201   0.000002  -0.003926  -0.000005   0.000001  -0.003719
     8  H    0.000002   0.515985  -0.000046  -0.000648   0.000171  -0.000041
     9  H   -0.003926  -0.000046   0.534779  -0.000604   0.000169  -0.000039
    10  O   -0.000005  -0.000648  -0.000604   8.011515   0.265865   0.000000
    11  H    0.000001   0.000171   0.000169   0.265865   0.417194   0.000000
    12  H   -0.003719  -0.000041  -0.000039   0.000000   0.000000   0.525764
    13  C   -0.000016  -0.003422   0.000001  -0.000001   0.000000  -0.004171
    14  O    0.000000   0.001584   0.000000   0.000000   0.000000   0.000019
    15  O    0.000000   0.000027   0.000000   0.000000   0.000000   0.003137
    16  C    0.000000  -0.000002   0.000000   0.000000   0.000000  -0.000094
    17  H    0.000000   0.000000   0.000000   0.000000   0.000000   0.000005
    18  H    0.000000   0.000000   0.000000   0.000000   0.000000   0.000005
    19  C    0.000000   0.000000   0.000000   0.000000   0.000000   0.000001
    20  H    0.000000   0.000000   0.000000   0.000000   0.000000   0.000000
    21  H    0.000000   0.000000   0.000000   0.000000   0.000000   0.000006
    22  H    0.000000   0.000000   0.000000   0.000000   0.000000   0.000006
              13         14         15         16         17         18
     1  C    0.000772  -0.000001   0.000012   0.000000   0.000000   0.000000
     2  C   -0.023650   0.000198  -0.002714   0.000056  -0.000003  -0.000003
     3  C    0.374850  -0.018469  -0.029823   0.001488   0.000003   0.000003
     4  C   -0.024106  -0.000915   0.000255  -0.000013   0.000001   0.000001
     5  C    0.000743   0.000002  -0.000001   0.000000   0.000000   0.000000
     6  C   -0.000004   0.000000   0.000000   0.000000   0.000000   0.000000
     7  H   -0.000016   0.000000   0.000000   0.000000   0.000000   0.000000
     8  H   -0.003422   0.001584   0.000027  -0.000002   0.000000   0.000000
     9  H    0.000001   0.000000   0.000000   0.000000   0.000000   0.000000
    10  O   -0.000001   0.000000   0.000000   0.000000   0.000000   0.000000
    11  H    0.000000   0.000000   0.000000   0.000000   0.000000   0.000000
    12  H   -0.004171   0.000019   0.003137  -0.000094   0.000005   0.000005
    13  C    4.521095   0.450326   0.292346  -0.037985  -0.005256  -0.005258
    14  O    0.450326   8.064008  -0.028970  -0.006096   0.001551   0.001549
    15  O    0.292346  -0.028970   7.935889   0.258895  -0.018152  -0.018139
    16  C   -0.037985  -0.006096   0.258895   4.708830   0.378261   0.378327
    17  H   -0.005256   0.001551  -0.018152   0.378261   0.578818  -0.027341
    18  H   -0.005258   0.001549  -0.018139   0.378327  -0.027341   0.578091
    19  C    0.001714   0.000082  -0.019161   0.362020  -0.024464  -0.024445
    20  H   -0.000043   0.000003   0.000731  -0.019250  -0.001506  -0.001508
    21  H   -0.000003  -0.000003  -0.000417  -0.022568  -0.003022   0.002280
    22  H   -0.000003  -0.000003  -0.000418  -0.022554   0.002280  -0.003020
              19         20         21         22
     1  C    0.000000   0.000000   0.000000   0.000000
     2  C   -0.000001   0.000000  -0.000001  -0.000001
     3  C   -0.000007   0.000000  -0.000002  -0.000002
     4  C    0.000000   0.000000   0.000000   0.000000
     5  C    0.000000   0.000000   0.000000   0.000000
     6  C    0.000000   0.000000   0.000000   0.000000
     7  H    0.000000   0.000000   0.000000   0.000000
     8  H    0.000000   0.000000   0.000000   0.000000
     9  H    0.000000   0.000000   0.000000   0.000000
    10  O    0.000000   0.000000   0.000000   0.000000
    11  H    0.000000   0.000000   0.000000   0.000000
    12  H    0.000001   0.000000   0.000006   0.000006
    13  C    0.001714  -0.000043  -0.000003  -0.000003
    14  O    0.000082   0.000003  -0.000003  -0.000003
    15  O   -0.019161   0.000731  -0.000417  -0.000418
    16  C    0.362020  -0.019250  -0.022568  -0.022554
    17  H   -0.024464  -0.001506  -0.003022   0.002280
    18  H   -0.024445  -0.001508   0.002280  -0.003020
    19  C    4.835693   0.381352   0.381497   0.381537
    20  H    0.381352   0.582331  -0.021730  -0.021717
    21  H    0.381497  -0.021730   0.586949  -0.023381
    22  H    0.381537  -0.021717  -0.023381   0.586452
 MBS Mulliken charges:
               1
     1  C   -0.098346
     2  C   -0.098473
     3  C   -0.022679
     4  C   -0.100795
     5  C    0.163870
     6  C   -0.104630
     7  H    0.111630
     8  H    0.146367
     9  H    0.127129
    10  O   -0.518960
    11  H    0.348914
    12  H    0.136557
    13  C    0.462069
    14  O   -0.464866
    15  O   -0.373497
    16  C    0.020686
    17  H    0.118827
    18  H    0.119459
    19  C   -0.275818
    20  H    0.101338
    21  H    0.100395
    22  H    0.100823
 Sum of MBS Mulliken charges =   0.00000
 MBS Mulliken charges with hydrogens summed into heavy atoms:
               1
     1  C    0.013284
     2  C    0.038083
     3  C   -0.022679
     4  C    0.045572
     5  C    0.163870
     6  C    0.022499
    10  O   -0.170045
    13  C    0.462069
    14  O   -0.464866
    15  O   -0.373497
    16  C    0.258972
    19  C    0.026737
 Breneman (CHELPG) radii used.
 Generate Potential Derived Charges using the Breneman model, NDens= 1.
 Grid spacing= 0.300 Box extension= 2.800
 NStep X,Y,Z=   52     37     26   Total possible points=       50024
 Number of Points to Fit=   14771

 **********************************************************************

            Electrostatic Properties Using The SCF Density

 **********************************************************************

       Atomic Center    1 is at   1.773827  1.917145 -0.000584
       Atomic Center    2 is at   0.499888  1.348331  0.000588
       Atomic Center    3 is at   0.355320 -0.038803 -0.012897
       Atomic Center    4 is at   1.485023 -0.857789 -0.028761
       Atomic Center    5 is at   2.758621 -0.289035 -0.030411
       Atomic Center    6 is at   2.903067  1.098530 -0.015925
       Atomic Center    7 is at   1.887591  3.010799  0.010499
       Atomic Center    8 is at   1.374273 -1.921986 -0.039659
       Atomic Center    9 is at   3.880111  1.534746 -0.016583
       Atomic Center   10 is at   3.916567 -1.127961 -0.046677
       Atomic Center   11 is at   4.180885 -1.326836  0.854536
       Atomic Center   12 is at  -0.366345  1.976354  0.011833
       Atomic Center   13 is at  -1.050823 -0.666781 -0.010717
       Atomic Center   14 is at  -1.390136 -1.849289 -0.020877
       Atomic Center   15 is at  -2.032805  0.269635  0.004989
       Atomic Center   16 is at  -3.320781 -0.351667  0.006501
       Atomic Center   17 is at  -3.417542 -0.969877  0.874460
       Atomic Center   18 is at  -3.428246 -0.951939 -0.872717
       Atomic Center   19 is at  -4.413898  0.732942  0.024332
       Atomic Center   20 is at  -5.377629  0.268053  0.025326
       Atomic Center   21 is at  -4.306516  1.333129  0.903619
       Atomic Center   22 is at  -4.317053  1.351235 -0.843558
   14771 points will be used for fitting atomic charges
 Fitting point charges to electrostatic potential
 Charges from ESP fit, RMS=   0.00370 RRMS=   0.26576:
 ESP charges:
               1
     1  C   -0.054870
     2  C   -0.111300
     3  C   -0.074179
     4  C   -0.179005
     5  C    0.410906
     6  C   -0.223419
     7  H    0.101457
     8  H    0.115055
     9  H    0.129544
    10  O   -0.592854
    11  H    0.365097
    12  H    0.096135
    13  C    0.696225
    14  O   -0.558361
    15  O   -0.446477
    16  C    0.389841
    17  H   -0.004174
    18  H    0.005347
    19  C   -0.266033
    20  H    0.054009
    21  H    0.072556
    22  H    0.074501
 Sum of ESP charges =   0.00000
 ESP charges with hydrogens summed into heavy atoms:
               1
     1  C    0.046587
     2  C   -0.015165
     3  C   -0.074179
     4  C   -0.063950
     5  C    0.410906
     6  C   -0.093875
    10  O   -0.227758
    13  C    0.696225
    14  O   -0.558361
    15  O   -0.446477
    16  C    0.391014
    19  C   -0.064968
 Charge=   0.00000 Dipole=    -0.1702     2.5030     1.5662 Tot=     2.9575
 -----------------------------------------------------------------

              Electrostatic Properties (Atomic Units)

 -----------------------------------------------------------------
    Center     Electric         -------- Electric Field --------
               Potential          X             Y             Z
 -----------------------------------------------------------------
    1 Atom    -14.752666
    2 Atom    -14.758080
    3 Atom    -14.737157
    4 Atom    -14.757059
    5 Atom    -14.697077
    6 Atom    -14.756596
    7 Atom     -1.088603
    8 Atom     -1.092271
    9 Atom     -1.089393
   10 Atom    -22.342409
   11 Atom     -0.976453
   12 Atom     -1.096803
   13 Atom    -14.634094
   14 Atom    -22.382151
   15 Atom    -22.322318
   16 Atom    -14.722104
   17 Atom     -1.118908
   18 Atom     -1.119017
   19 Atom    -14.782594
   20 Atom     -1.112196
   21 Atom     -1.120124
   22 Atom     -1.120183
 -----------------------------------------------------------------
 ******************************Gaussian NBO Version 3.1******************************
             N A T U R A L   A T O M I C   O R B I T A L   A N D
          N A T U R A L   B O N D   O R B I T A L   A N A L Y S I S
 ******************************Gaussian NBO Version 3.1******************************
       /RESON  / : Allow strongly delocalized NBO set

 Analyzing the SCF density

 Job title: Title Card Required                                             

 Storage needed:    316726 in NPA ( 536868272 available)


 NATURAL POPULATIONS:  Natural atomic orbital occupancies 
                                                          
   NAO  Atom  No  lang   Type(AO)    Occupancy      Energy
 ----------------------------------------------------------
     1    C    1  S      Cor( 1S)     1.99917     -10.05433
     2    C    1  S      Val( 2S)     0.95699      -0.18516
     3    C    1  S      Ryd( 3S)     0.00157       0.85838
     4    C    1  S      Ryd( 4S)     0.00014       1.46485
     5    C    1  S      Ryd( 5S)     0.00001      22.28496
     6    C    1  px     Val( 2p)     1.05384      -0.06042
     7    C    1  px     Ryd( 4p)     0.00465       0.77032
     8    C    1  px     Ryd( 3p)     0.00036       0.40692
     9    C    1  px     Ryd( 5p)     0.00015       3.05828
    10    C    1  py     Val( 2p)     1.17065      -0.07455
    11    C    1  py     Ryd( 4p)     0.00663       1.07715
    12    C    1  py     Ryd( 3p)     0.00026       0.27728
    13    C    1  py     Ryd( 5p)     0.00007       3.15012
    14    C    1  pz     Val( 2p)     0.99526      -0.12621
    15    C    1  pz     Ryd( 4p)     0.00083       0.51443
    16    C    1  pz     Ryd( 3p)     0.00023       0.32264
    17    C    1  pz     Ryd( 5p)     0.00001       2.63674
    18    C    1  dxy    Ryd( 3d)     0.00066       2.56399
    19    C    1  dxz    Ryd( 3d)     0.00047       1.66029
    20    C    1  dyz    Ryd( 3d)     0.00042       1.58902
    21    C    1  dx2y2  Ryd( 3d)     0.00074       2.46575
    22    C    1  dz2    Ryd( 3d)     0.00040       2.04170

    23    C    2  S      Cor( 1S)     1.99908     -10.04322
    24    C    2  S      Val( 2S)     0.94300      -0.16848
    25    C    2  S      Ryd( 4S)     0.00122       0.85424
    26    C    2  S      Ryd( 3S)     0.00011       0.56829
    27    C    2  S      Ryd( 5S)     0.00001      23.22517
    28    C    2  px     Val( 2p)     1.14971      -0.06943
    29    C    2  px     Ryd( 4p)     0.00515       1.07433
    30    C    2  px     Ryd( 3p)     0.00035       0.54892
    31    C    2  px     Ryd( 5p)     0.00009       3.19496
    32    C    2  py     Val( 2p)     1.10054      -0.06260
    33    C    2  py     Ryd( 4p)     0.00478       0.85565
    34    C    2  py     Ryd( 3p)     0.00040       0.39198
    35    C    2  py     Ryd( 5p)     0.00016       3.21251
    36    C    2  pz     Val( 2p)     0.96850      -0.12263
    37    C    2  pz     Ryd( 4p)     0.00111       0.52689
    38    C    2  pz     Ryd( 3p)     0.00027       0.32641
    39    C    2  pz     Ryd( 5p)     0.00001       2.69433
    40    C    2  dxy    Ryd( 3d)     0.00074       2.52370
    41    C    2  dxz    Ryd( 3d)     0.00045       1.61966
    42    C    2  dyz    Ryd( 3d)     0.00045       1.64931
    43    C    2  dx2y2  Ryd( 3d)     0.00072       2.62762
    44    C    2  dz2    Ryd( 3d)     0.00042       2.05394

    45    C    3  S      Cor( 1S)     1.99890     -10.07131
    46    C    3  S      Val( 2S)     0.91436      -0.17048
    47    C    3  S      Ryd( 3S)     0.00130       0.80084
    48    C    3  S      Ryd( 4S)     0.00010       1.89601
    49    C    3  S      Ryd( 5S)     0.00001      22.16262
    50    C    3  px     Val( 2p)     1.06402      -0.08901
    51    C    3  px     Ryd( 4p)     0.00593       1.26262
    52    C    3  px     Ryd( 3p)     0.00028       0.76671
    53    C    3  px     Ryd( 5p)     0.00014       3.14762
    54    C    3  py     Val( 2p)     1.09389      -0.08329
    55    C    3  py     Ryd( 4p)     0.00591       1.18386
    56    C    3  py     Ryd( 3p)     0.00016       0.70558
    57    C    3  py     Ryd( 5p)     0.00011       3.12063
    58    C    3  pz     Val( 2p)     1.04776      -0.13053
    59    C    3  pz     Ryd( 4p)     0.00064       0.58260
    60    C    3  pz     Ryd( 3p)     0.00023       0.56757
    61    C    3  pz     Ryd( 5p)     0.00003       2.50499
    62    C    3  dxy    Ryd( 3d)     0.00081       2.56363
    63    C    3  dxz    Ryd( 3d)     0.00039       1.60712
    64    C    3  dyz    Ryd( 3d)     0.00056       1.64498
    65    C    3  dx2y2  Ryd( 3d)     0.00081       2.55619
    66    C    3  dz2    Ryd( 3d)     0.00044       2.08252

    67    C    4  S      Cor( 1S)     1.99896     -10.04348
    68    C    4  S      Val( 2S)     0.94987      -0.17001
    69    C    4  S      Ryd( 3S)     0.00153       0.80358
    70    C    4  S      Ryd( 4S)     0.00012       1.10168
    71    C    4  S      Ryd( 5S)     0.00001      22.73697
    72    C    4  px     Val( 2p)     1.06630      -0.06698
    73    C    4  px     Ryd( 4p)     0.00430       0.84219
    74    C    4  px     Ryd( 3p)     0.00033       0.50703
    75    C    4  px     Ryd( 5p)     0.00021       3.21006
    76    C    4  py     Val( 2p)     1.19791      -0.08031
    77    C    4  py     Ryd( 4p)     0.00625       1.05200
    78    C    4  py     Ryd( 3p)     0.00049       0.36489
    79    C    4  py     Ryd( 5p)     0.00008       3.19002
    80    C    4  pz     Val( 2p)     0.97201      -0.12458
    81    C    4  pz     Ryd( 4p)     0.00113       0.49869
    82    C    4  pz     Ryd( 3p)     0.00044       0.29759
    83    C    4  pz     Ryd( 5p)     0.00001       2.71989
    84    C    4  dxy    Ryd( 3d)     0.00069       2.60101
    85    C    4  dxz    Ryd( 3d)     0.00055       1.66156
    86    C    4  dyz    Ryd( 3d)     0.00046       1.61367
    87    C    4  dx2y2  Ryd( 3d)     0.00071       2.52078
    88    C    4  dz2    Ryd( 3d)     0.00044       2.06863

    89    C    5  S      Cor( 1S)     1.99869     -10.12274
    90    C    5  S      Val( 2S)     0.84877      -0.16235
    91    C    5  S      Ryd( 4S)     0.00115       0.87775
    92    C    5  S      Ryd( 3S)     0.00011       0.82241
    93    C    5  S      Ryd( 5S)     0.00002      22.72580
    94    C    5  px     Val( 2p)     0.86685      -0.06751
    95    C    5  px     Ryd( 4p)     0.00608       1.04935
    96    C    5  px     Ryd( 3p)     0.00068       0.39162
    97    C    5  px     Ryd( 5p)     0.00028       2.95226
    98    C    5  py     Val( 2p)     0.96659      -0.06978
    99    C    5  py     Ryd( 4p)     0.00491       1.07565
   100    C    5  py     Ryd( 3p)     0.00065       0.40582
   101    C    5  py     Ryd( 5p)     0.00022       2.93305
   102    C    5  pz     Val( 2p)     1.00247      -0.13422
   103    C    5  pz     Ryd( 4p)     0.00166       0.60855
   104    C    5  pz     Ryd( 3p)     0.00056       0.34730
   105    C    5  pz     Ryd( 5p)     0.00004       2.59016
   106    C    5  dxy    Ryd( 3d)     0.00166       2.44494
   107    C    5  dxz    Ryd( 3d)     0.00129       1.60724
   108    C    5  dyz    Ryd( 3d)     0.00092       1.62112
   109    C    5  dx2y2  Ryd( 3d)     0.00179       2.56787
   110    C    5  dz2    Ryd( 3d)     0.00056       2.02904

   111    C    6  S      Cor( 1S)     1.99903     -10.04655
   112    C    6  S      Val( 2S)     0.95884      -0.18045
   113    C    6  S      Ryd( 3S)     0.00175       0.67015
   114    C    6  S      Ryd( 4S)     0.00012       1.38216
   115    C    6  S      Ryd( 5S)     0.00001      22.51363
   116    C    6  px     Val( 2p)     1.16901      -0.07434
   117    C    6  px     Ryd( 4p)     0.00644       1.03681
   118    C    6  px     Ryd( 3p)     0.00033       0.33934
   119    C    6  px     Ryd( 5p)     0.00008       3.16383
   120    C    6  py     Val( 2p)     1.08852      -0.07380
   121    C    6  py     Ryd( 4p)     0.00434       0.80181
   122    C    6  py     Ryd( 3p)     0.00038       0.35963
   123    C    6  py     Ryd( 5p)     0.00017       3.11900
   124    C    6  pz     Val( 2p)     0.98760      -0.12760
   125    C    6  pz     Ryd( 4p)     0.00113       0.49671
   126    C    6  pz     Ryd( 3p)     0.00030       0.29453
   127    C    6  pz     Ryd( 5p)     0.00002       2.68460
   128    C    6  dxy    Ryd( 3d)     0.00067       2.52377
   129    C    6  dxz    Ryd( 3d)     0.00045       1.60849
   130    C    6  dyz    Ryd( 3d)     0.00053       1.65333
   131    C    6  dx2y2  Ryd( 3d)     0.00080       2.55459
   132    C    6  dz2    Ryd( 3d)     0.00042       2.04756

   133    H    7  S      Val( 1S)     0.78449       0.02480
   134    H    7  S      Ryd( 2S)     0.00064       0.59110
   135    H    7  S      Ryd( 3S)     0.00017       2.13716
   136    H    7  px     Ryd( 2p)     0.00011       1.97767
   137    H    7  py     Ryd( 2p)     0.00044       2.65522
   138    H    7  pz     Ryd( 2p)     0.00018       1.57534

   139    H    8  S      Val( 1S)     0.76035       0.05595
   140    H    8  S      Ryd( 2S)     0.00116       0.90348
   141    H    8  S      Ryd( 3S)     0.00018       1.73580
   142    H    8  px     Ryd( 2p)     0.00012       2.06145
   143    H    8  py     Ryd( 2p)     0.00044       2.74503
   144    H    8  pz     Ryd( 2p)     0.00013       1.61343

   145    H    9  S      Val( 1S)     0.77972       0.04234
   146    H    9  S      Ryd( 2S)     0.00080       0.76939
   147    H    9  S      Ryd( 3S)     0.00019       1.86614
   148    H    9  px     Ryd( 2p)     0.00040       2.59081
   149    H    9  py     Ryd( 2p)     0.00013       2.11878
   150    H    9  pz     Ryd( 2p)     0.00015       1.59618

   151    O   10  S      Cor( 1S)     1.99976     -18.94742
   152    O   10  S      Val( 2S)     1.67653      -0.91836
   153    O   10  S      Ryd( 4S)     0.00051       2.00134
   154    O   10  S      Ryd( 3S)     0.00036       0.92815
   155    O   10  S      Ryd( 5S)     0.00000      49.54590
   156    O   10  px     Val( 2p)     1.63505      -0.31522
   157    O   10  px     Ryd( 3p)     0.00268       0.51412
   158    O   10  px     Ryd( 4p)     0.00011       1.21011
   159    O   10  px     Ryd( 5p)     0.00002       4.79040
   160    O   10  py     Val( 2p)     1.79079      -0.31810
   161    O   10  py     Ryd( 3p)     0.00325       0.53419
   162    O   10  py     Ryd( 4p)     0.00007       1.18756
   163    O   10  py     Ryd( 5p)     0.00001       4.78183
   164    O   10  pz     Val( 2p)     1.60970      -0.30652
   165    O   10  pz     Ryd( 3p)     0.00177       0.57281
   166    O   10  pz     Ryd( 4p)     0.00014       1.18562
   167    O   10  pz     Ryd( 5p)     0.00002       4.88868
   168    O   10  dxy    Ryd( 3d)     0.00079       3.25572
   169    O   10  dxz    Ryd( 3d)     0.00083       3.08397
   170    O   10  dyz    Ryd( 3d)     0.00076       3.02120
   171    O   10  dx2y2  Ryd( 3d)     0.00040       3.07149
   172    O   10  dz2    Ryd( 3d)     0.00152       3.44069

   173    H   11  S      Val( 1S)     0.52206       0.10396
   174    H   11  S      Ryd( 2S)     0.00058       1.36260
   175    H   11  S      Ryd( 3S)     0.00031       1.36372
   176    H   11  px     Ryd( 2p)     0.00137       1.73353
   177    H   11  py     Ryd( 2p)     0.00160       1.63107
   178    H   11  pz     Ryd( 2p)     0.00070       2.46017

   179    H   12  S      Val( 1S)     0.77060       0.05873
   180    H   12  S      Ryd( 3S)     0.00064       1.56757
   181    H   12  S      Ryd( 2S)     0.00012       1.18498
   182    H   12  px     Ryd( 2p)     0.00033       2.50988
   183    H   12  py     Ryd( 2p)     0.00023       2.27363
   184    H   12  pz     Ryd( 2p)     0.00016       1.60593

   185    C   13  S      Cor( 1S)     1.99939     -10.20319
   186    C   13  S      Val( 2S)     0.78333      -0.16968
   187    C   13  S      Ryd( 3S)     0.00376       0.91124
   188    C   13  S      Ryd( 4S)     0.00013       1.38494
   189    C   13  S      Ryd( 5S)     0.00005      22.23356
   190    C   13  px     Val( 2p)     0.86688      -0.05311
   191    C   13  px     Ryd( 4p)     0.00544       1.38708
   192    C   13  px     Ryd( 3p)     0.00046       0.55642
   193    C   13  px     Ryd( 5p)     0.00015       2.38084
   194    C   13  py     Val( 2p)     0.73374      -0.02444
   195    C   13  py     Ryd( 4p)     0.02100       1.08442
   196    C   13  py     Ryd( 3p)     0.00039       0.43454
   197    C   13  py     Ryd( 5p)     0.00014       2.62555
   198    C   13  pz     Val( 2p)     0.76593      -0.13972
   199    C   13  pz     Ryd( 4p)     0.00057       0.71546
   200    C   13  pz     Ryd( 3p)     0.00063       0.38377
   201    C   13  pz     Ryd( 5p)     0.00015       2.46211
   202    C   13  dxy    Ryd( 3d)     0.00501       2.51580
   203    C   13  dxz    Ryd( 3d)     0.00179       1.51189
   204    C   13  dyz    Ryd( 3d)     0.00451       1.60724
   205    C   13  dx2y2  Ryd( 3d)     0.00294       2.39967
   206    C   13  dz2    Ryd( 3d)     0.00069       1.96857

   207    O   14  S      Cor( 1S)     1.99977     -18.85788
   208    O   14  S      Val( 2S)     1.71381      -0.90338
   209    O   14  S      Ryd( 3S)     0.00087       1.42638
   210    O   14  S      Ryd( 4S)     0.00010       1.43971
   211    O   14  S      Ryd( 5S)     0.00000      49.75583
   212    O   14  px     Val( 2p)     1.81846      -0.27309
   213    O   14  px     Ryd( 3p)     0.00200       0.74771
   214    O   14  px     Ryd( 4p)     0.00025       1.04678
   215    O   14  px     Ryd( 5p)     0.00002       5.12069
   216    O   14  py     Val( 2p)     1.59367      -0.30444
   217    O   14  py     Ryd( 3p)     0.00060       0.59003
   218    O   14  py     Ryd( 4p)     0.00021       0.99469
   219    O   14  py     Ryd( 5p)     0.00012       5.25803
   220    O   14  pz     Val( 2p)     1.46851      -0.26038
   221    O   14  pz     Ryd( 3p)     0.00130       0.56621
   222    O   14  pz     Ryd( 4p)     0.00010       0.90732
   223    O   14  pz     Ryd( 5p)     0.00002       4.94412
   224    O   14  dxy    Ryd( 3d)     0.00150       3.32885
   225    O   14  dxz    Ryd( 3d)     0.00013       2.85793
   226    O   14  dyz    Ryd( 3d)     0.00152       3.07015
   227    O   14  dx2y2  Ryd( 3d)     0.00159       3.44579
   228    O   14  dz2    Ryd( 3d)     0.00047       3.11745

   229    O   15  S      Cor( 1S)     1.99972     -18.96498
   230    O   15  S      Val( 2S)     1.62931      -0.90560
   231    O   15  S      Ryd( 3S)     0.00386       0.76415
   232    O   15  S      Ryd( 4S)     0.00014       1.33043
   233    O   15  S      Ryd( 5S)     0.00000      49.69047
   234    O   15  px     Val( 2p)     1.39518      -0.32816
   235    O   15  px     Ryd( 4p)     0.00196       1.13304
   236    O   15  px     Ryd( 3p)     0.00075       0.95688
   237    O   15  px     Ryd( 5p)     0.00005       5.22723
   238    O   15  py     Val( 2p)     1.73283      -0.35777
   239    O   15  py     Ryd( 3p)     0.00274       0.71046
   240    O   15  py     Ryd( 4p)     0.00092       0.89865
   241    O   15  py     Ryd( 5p)     0.00015       5.08375
   242    O   15  pz     Val( 2p)     1.78842      -0.33304
   243    O   15  pz     Ryd( 3p)     0.00252       0.52999
   244    O   15  pz     Ryd( 4p)     0.00054       0.79608
   245    O   15  pz     Ryd( 5p)     0.00000       4.91734
   246    O   15  dxy    Ryd( 3d)     0.00147       3.57151
   247    O   15  dxz    Ryd( 3d)     0.00013       2.95705
   248    O   15  dyz    Ryd( 3d)     0.00095       2.91510
   249    O   15  dx2y2  Ryd( 3d)     0.00080       3.18351
   250    O   15  dz2    Ryd( 3d)     0.00063       3.25339

   251    C   16  S      Cor( 1S)     1.99917     -10.09711
   252    C   16  S      Val( 2S)     1.01687      -0.24804
   253    C   16  S      Ryd( 3S)     0.00434       0.92287
   254    C   16  S      Ryd( 4S)     0.00017       1.28819
   255    C   16  S      Ryd( 5S)     0.00000      22.81372
   256    C   16  px     Val( 2p)     0.75473      -0.07307
   257    C   16  px     Ryd( 4p)     0.00241       0.79673
   258    C   16  px     Ryd( 3p)     0.00065       0.53203
   259    C   16  px     Ryd( 5p)     0.00019       2.70099
   260    C   16  py     Val( 2p)     1.04206      -0.09396
   261    C   16  py     Ryd( 4p)     0.00300       0.67304
   262    C   16  py     Ryd( 3p)     0.00028       0.62800
   263    C   16  py     Ryd( 5p)     0.00023       2.65536
   264    C   16  pz     Val( 2p)     1.19823      -0.09868
   265    C   16  pz     Ryd( 4p)     0.00140       0.63534
   266    C   16  pz     Ryd( 3p)     0.00043       0.59696
   267    C   16  pz     Ryd( 5p)     0.00010       2.70206
   268    C   16  dxy    Ryd( 3d)     0.00154       2.21182
   269    C   16  dxz    Ryd( 3d)     0.00106       1.75792
   270    C   16  dyz    Ryd( 3d)     0.00132       2.26237
   271    C   16  dx2y2  Ryd( 3d)     0.00171       1.98961
   272    C   16  dz2    Ryd( 3d)     0.00117       2.15442

   273    H   17  S      Val( 1S)     0.81522       0.03174
   274    H   17  S      Ryd( 2S)     0.00113       0.73595
   275    H   17  S      Ryd( 3S)     0.00025       2.10127
   276    H   17  px     Ryd( 2p)     0.00015       1.80607
   277    H   17  py     Ryd( 2p)     0.00026       2.13151
   278    H   17  pz     Ryd( 2p)     0.00030       2.46369

   279    H   18  S      Val( 1S)     0.81468       0.03222
   280    H   18  S      Ryd( 2S)     0.00112       0.73713
   281    H   18  S      Ryd( 3S)     0.00025       2.10025
   282    H   18  px     Ryd( 2p)     0.00015       1.80964
   283    H   18  py     Ryd( 2p)     0.00025       2.11440
   284    H   18  pz     Ryd( 2p)     0.00030       2.47790

   285    C   19  S      Cor( 1S)     1.99934     -10.02016
   286    C   19  S      Val( 2S)     1.08728      -0.25018
   287    C   19  S      Ryd( 3S)     0.00072       0.76190
   288    C   19  S      Ryd( 4S)     0.00025       0.80926
   289    C   19  S      Ryd( 5S)     0.00000      23.23225
   290    C   19  px     Val( 2p)     1.13379      -0.09441
   291    C   19  px     Ryd( 4p)     0.00150       0.61389
   292    C   19  px     Ryd( 3p)     0.00015       0.23705
   293    C   19  px     Ryd( 5p)     0.00007       3.07639
   294    C   19  py     Val( 2p)     1.13899      -0.09300
   295    C   19  py     Ryd( 4p)     0.00093       0.55652
   296    C   19  py     Ryd( 3p)     0.00015       0.17924
   297    C   19  py     Ryd( 5p)     0.00008       3.06863
   298    C   19  pz     Val( 2p)     1.21435      -0.09388
   299    C   19  pz     Ryd( 4p)     0.00062       0.53101
   300    C   19  pz     Ryd( 3p)     0.00007       0.19007
   301    C   19  pz     Ryd( 5p)     0.00002       3.11253
   302    C   19  dxy    Ryd( 3d)     0.00073       2.27640
   303    C   19  dxz    Ryd( 3d)     0.00010       1.82367
   304    C   19  dyz    Ryd( 3d)     0.00105       2.26530
   305    C   19  dx2y2  Ryd( 3d)     0.00033       1.95239
   306    C   19  dz2    Ryd( 3d)     0.00067       2.16191

   307    H   20  S      Val( 1S)     0.79475       0.03445
   308    H   20  S      Ryd( 2S)     0.00051       0.66405
   309    H   20  S      Ryd( 3S)     0.00011       2.04794
   310    H   20  px     Ryd( 2p)     0.00030       2.53962
   311    H   20  py     Ryd( 2p)     0.00016       1.89787
   312    H   20  pz     Ryd( 2p)     0.00010       1.76013

   313    H   21  S      Val( 1S)     0.79946       0.03995
   314    H   21  S      Ryd( 2S)     0.00095       0.93805
   315    H   21  S      Ryd( 3S)     0.00015       1.80515
   316    H   21  px     Ryd( 2p)     0.00013       1.77662
   317    H   21  py     Ryd( 2p)     0.00016       2.04737
   318    H   21  pz     Ryd( 2p)     0.00024       2.42548

   319    H   22  S      Val( 1S)     0.79910       0.04026
   320    H   22  S      Ryd( 2S)     0.00095       0.93925
   321    H   22  S      Ryd( 3S)     0.00015       1.80413
   322    H   22  px     Ryd( 2p)     0.00013       1.77595
   323    H   22  py     Ryd( 2p)     0.00017       2.06644
   324    H   22  pz     Ryd( 2p)     0.00023       2.40755

 WARNING:  1 low occupancy (<1.9990e) core orbital  found on  C    3
           1 low occupancy (<1.9990e) core orbital  found on  C    4
           1 low occupancy (<1.9990e) core orbital  found on  C    5

 WARNING:  Population inversion found on atom  C    1
           Population inversion found on atom  C    2
           Population inversion found on atom  C    3
           Population inversion found on atom  C    4
           Population inversion found on atom  C    5
           Population inversion found on atom  C    6
           Population inversion found on atom  O   10
           Population inversion found on atom  H   12
           Population inversion found on atom  C   13
           Population inversion found on atom  O   15
           Population inversion found on atom  C   16
           Population inversion found on atom  C   19


 Summary of Natural Population Analysis:                  
                                                          
                                       Natural Population 
                Natural  -----------------------------------------------
    Atom  No    Charge         Core      Valence    Rydberg      Total
 -----------------------------------------------------------------------
      C    1   -0.19350      1.99917     4.17674    0.01759     6.19350
      C    2   -0.17727      1.99908     4.16175    0.01644     6.17727
      C    3   -0.13678      1.99890     4.12004    0.01785     6.13678
      C    4   -0.20279      1.99896     4.18609    0.01775     6.20279
      C    5    0.29405      1.99869     3.68468    0.02258     5.70595
      C    6   -0.22091      1.99903     4.20397    0.01791     6.22091
      H    7    0.21398      0.00000     0.78449    0.00153     0.78602
      H    8    0.23761      0.00000     0.76035    0.00203     0.76239
      H    9    0.21859      0.00000     0.77972    0.00168     0.78141
      O   10   -0.72507      1.99976     6.71207    0.01323     8.72507
      H   11    0.47339      0.00000     0.52206    0.00455     0.52661
      H   12    0.22792      0.00000     0.77060    0.00148     0.77208
      C   13    0.80291      1.99939     3.14987    0.04783     5.19709
      O   14   -0.60501      1.99977     6.59445    0.01079     8.60501
      O   15   -0.56309      1.99972     6.54573    0.01764     8.56309
      C   16   -0.03105      1.99917     4.01188    0.02000     6.03105
[...]
 00065048,0.00023210,0.00087612,-0.00097132,-0.00008288,-0.00022638,0.0
 0014322,-0.00000304,0.00017369,0.00019759,0.00004402,-0.00013398,0.000
 07386,0.00000799,-0.13535484,0.28247453,-0.00018777,0.00019208,0.00298
 353,0.00587336,-0.01114102,-0.03548481,0.00078367,-0.00106581,0.001894
 92,-0.00021291,-0.00042676,0.00588762,-0.00003597,0.00002517,-0.000539
 38,-0.00007763,-0.00026410,0.00666812,0.00003488,0.00022984,-0.0040310
 4,0.00004259,-0.00008773,0.00076108,-0.00001306,0.00000106,0.00019207,
 0.00001161,0.00004368,-0.00068573,-0.00000654,0.00000845,-0.00009498,-
 0.00634452,0.01228525,0.02576337,0.00471311,-0.00234640,-0.00012503,-0
 .01686028,-0.01498844,-0.00078534,-0.18563503,-0.00340492,-0.00046972,
 -0.02847540,0.01623886,0.00071388,0.00340803,0.00830066,0.00039498,0.0
 0097887,-0.00107468,-0.00004560,0.00090639,0.00057621,0.00002954,0.000
 31441,-0.00289499,-0.00013079,-0.00004186,-0.00002353,0.00000122,0.002
 44562,-0.00523955,-0.00025076,-0.00011771,0.00104026,0.00005053,0.0011
 6806,0.00242837,0.00013418,0.68497618,-0.00479932,-0.00583049,-0.00069
 455,-0.02686382,0.00830650,0.00034727,0.00331622,-0.09304981,-0.000685
 81,0.02455365,0.00901507,0.00043331,0.00597401,-0.00406975,-0.00055838
 ,-0.00066269,-0.00426733,-0.00013965,-0.00164550,0.00007663,-0.0000230
 5,0.00290420,-0.00284487,0.00005358,-0.00005793,-0.00039692,0.00002183
 ,0.00172961,-0.00161224,-0.00008478,0.00074495,0.00016918,0.00000758,-
 0.00072253,-0.00233316,0.00007335,0.17494216,0.82028596,-0.00024560,-0
 .00068721,0.00798401,-0.00136587,0.00038173,-0.00028272,-0.00014156,-0
 .00070603,-0.07892771,0.00112124,0.00041161,0.00163570,0.00028311,-0.0
 0055153,0.00759275,-0.00002592,-0.00014158,-0.00147300,-0.00007960,-0.
 00001697,0.00045382,0.00015467,0.00003675,-0.00376501,-0.00000065,0.00
 002179,-0.00084208,0.00009144,-0.00010479,0.00021149,0.00003619,0.0000
 0845,0.00005693,-0.00002175,0.00008233,-0.00386509,0.00997137,0.030445
 83,0.21445950,-0.00282157,-0.00157510,-0.00008058,-0.00539079,0.006966
 33,0.00031991,-0.03276064,-0.04608286,-0.00242274,-0.00105846,-0.00354
 019,-0.00017937,0.00182832,-0.00334377,-0.00015656,-0.00054283,-0.0008
 4137,-0.00004336,-0.00101529,-0.00013943,-0.00000864,-0.00163485,-0.00
 032938,-0.00001961,-0.00011918,-0.00004405,-0.00000293,-0.00143441,0.0
 0236261,0.00011134,0.00014400,-0.00056356,-0.00002690,0.00020033,-0.00
 026554,-0.00001427,-0.27530911,-0.25598227,-0.01318340,0.28686051,-0.0
 0110505,0.00070814,0.00010699,0.00007198,0.00361385,0.00005107,-0.0286
 9689,-0.01159644,-0.00164767,0.00635792,-0.00595475,-0.00030291,-0.001
 95162,-0.00070090,-0.00000176,0.00064562,0.00064020,0.00002697,-0.0003
 0348,-0.00006562,0.00001222,-0.00082311,0.00261792,0.00015041,0.000047
 96,0.00029167,0.00000825,-0.00060376,0.00169995,0.00007224,-0.00041377
 ,-0.00018638,-0.00000355,0.00077998,0.00087605,0.00001867,-0.26129159,
 -0.51539232,-0.02226146,0.29952609,0.63488446,-0.00005806,0.00010482,-
 0.00151682,-0.00001997,0.00007120,0.00258008,-0.00156454,-0.00169693,0
 .02006732,0.00030887,-0.00033182,0.00056103,-0.00008894,-0.00000650,-0
 .00076613,0.00002993,0.00002312,0.00012743,-0.00001699,0.00001263,-0.0
 0032979,-0.00004368,0.00015216,-0.00048405,0.00000166,0.00000812,0.000
 12496,-0.00003442,0.00008099,0.00019587,-0.00001956,-0.00000405,-0.000
 13677,0.00003761,0.00001603,0.00053719,-0.01344584,-0.02224410,-0.0802
 2955,0.01549155,0.03050997,0.03513581,0.00086496,0.00066250,0.00003632
 ,-0.00502161,0.00134179,0.00005031,-0.03327844,0.04362899,0.00202886,-
 0.00590730,-0.00599830,-0.00031471,-0.00061370,-0.00164502,-0.00008212
 ,-0.00081620,0.00183203,0.00008772,-0.00034917,-0.00027614,-0.00001458
 ,0.00074495,0.00017497,0.00001057,-0.00015956,0.00004658,0.00000176,-0
 .00255222,0.00302453,0.00014162,0.00024911,-0.00071994,-0.00003470,-0.
 00314022,0.00082669,0.00003152,-0.15274533,0.05821718,0.00262114,0.030
 80469,0.00001862,0.00000660,0.42853796,0.00113664,0.00059894,0.0000598
 5,-0.00186910,-0.00486313,-0.00028260,0.01834891,-0.00517159,-0.000693
 43,-0.00114158,0.00280051,0.00008233,0.00038132,0.00224243,0.00011916,
 0.00029103,-0.00014131,-0.00000594,0.00038642,0.00013973,0.00000726,-0
 .00168337,0.00072828,0.00002453,0.00002362,0.00018720,0.00000713,0.000
 65415,-0.00082038,-0.00003181,-0.00036591,0.00027291,0.00001182,-0.000
 73979,0.00150031,0.00006106,0.04168679,-0.20714399,-0.00687680,0.00053
 185,-0.11199637,-0.00696072,-0.07066070,0.40808301,0.00005964,0.000058
 57,-0.00055046,-0.00010819,-0.00027397,0.00075892,0.00078263,-0.000620
 78,0.00992025,-0.00007649,0.00006889,0.00106740,0.00001782,0.00011439,
 -0.00015561,0.00001213,-0.00000214,-0.00000088,0.00001800,0.00000545,0
 .00001407,-0.00008133,0.00003013,0.00012918,0.00000059,0.00000725,0.00
 004329,0.00002543,-0.00002551,-0.00013545,-0.00001737,0.00001085,0.000
 01218,-0.00004561,0.00006536,0.00022382,0.00180522,-0.00683004,-0.0655
 9242,0.00003048,-0.00696153,0.02878966,-0.00247205,0.01616073,0.077135
 83,-0.00032270,-0.00022518,-0.00001235,0.00081921,-0.00028057,-0.00001
 052,0.00537714,-0.00175476,-0.00008807,0.00045224,0.00087267,0.0000436
 3,-0.00010927,0.00187696,0.00009271,0.00034526,-0.00078719,-0.00003789
 ,0.00017798,0.00011943,0.00000627,-0.00037010,0.00003511,0.00000005,0.
 00009955,-0.00004055,-0.00000152,0.00103499,-0.00164994,-0.00007778,-0
 .00013828,0.00033164,0.00001580,-0.00059763,-0.00066117,-0.00003356,-0
 .03568313,0.04334587,0.00203391,-0.00377142,-0.02031576,-0.00099310,-0
 .16104883,-0.01206921,-0.00087242,0.41132158,0.00018553,0.00033023,0.0
 0000955,-0.00087959,-0.00019674,0.00000566,0.00038982,-0.00491365,-0.0
 0052238,0.00128411,0.00037883,0.00000966,-0.00009802,-0.00076970,-0.00
 002463,-0.00022780,0.00021359,0.00000773,-0.00002710,-0.00002403,-0.00
 000294,0.00000930,-0.00001557,-0.00001104,-0.00001936,0.00003644,0.000
 00504,0.00003766,0.00022271,0.00001663,0.00001904,-0.00001554,-0.00000
 242,0.00018734,0.00067731,0.00004557,0.04301109,-0.00285814,-0.0000471
 8,0.00227746,0.00067204,0.00035030,-0.03453614,-0.08601875,-0.00104101
 ,0.03116070,0.55199493,0.00000813,0.00000834,0.00014586,-0.00004030,0.
 00000741,-0.00036122,0.00001859,-0.00052913,0.00567965,0.00006466,0.00
 000850,0.00025562,-0.00000476,-0.00001955,-0.00027357,-0.00001041,0.00
 000647,0.00004317,-0.00000092,-0.00000252,0.00003400,-0.00000125,-0.00
 001090,0.00020798,-0.00000047,0.00000495,-0.00006630,0.00000524,0.0000
 1189,-0.00011303,0.00000042,-0.00000154,0.00003496,0.00000804,0.000043
 01,-0.00023383,0.00201758,-0.00005079,0.00057035,0.00012465,0.00028497
 ,-0.00627969,-0.00198025,-0.00097392,-0.06695352,0.00097056,-0.0029243
 9,0.61229495,0.00012121,0.00006499,0.00008306,-0.00013791,0.00001530,-
 0.00003716,-0.00056677,0.00030323,0.00093130,0.00001424,-0.00020236,0.
 00008289,-0.00006539,-0.00026406,-0.00009344,-0.00008192,0.00016957,0.
 00002139,-0.00002369,-0.00001881,0.00000286,0.00001885,0.00002970,0.00
 001914,-0.00001355,0.00001401,-0.00002077,-0.00013478,0.00023009,0.000
 00691,0.00001107,-0.00004248,-0.00000914,0.00012404,0.00017457,-0.0000
 9174,0.00119325,-0.00908574,-0.00159653,0.00166013,0.00312478,0.000180
 91,-0.03367331,-0.01030995,-0.02986523,-0.06769528,-0.03246187,-0.0577
 5063,0.08805168,-0.00007230,0.00000348,0.00000823,0.00002477,-0.000033
 20,0.00008084,-0.00013391,-0.00002929,-0.00051357,-0.00004502,0.000023
 34,0.00005212,0.00005473,0.00001801,-0.00000931,0.00001982,-0.00003957
 ,-0.00000188,-0.00000327,-0.00000041,-0.00000959,0.00002929,-0.0000107
 9,-0.00000098,-0.00000414,-0.00000033,0.00000478,-0.00001846,0.0000103
 4,0.00000329,0.00000497,-0.00000122,-0.00000085,0.00002012,0.00001449,
 -0.00002895,0.00194210,0.00174734,0.00078621,-0.00061108,-0.00037234,0
 .00009431,-0.00164667,0.00073515,0.00199507,-0.03509421,-0.10137106,-0
 .09786751,0.03729607,0.10854630,0.00004653,0.00001673,0.00001405,0.000
 04591,-0.00003290,0.00001481,-0.00003464,0.00033044,-0.00042826,0.0000
 0417,-0.00004063,0.00000967,-0.00003246,-0.00003453,-0.00000232,0.0000
 1843,0.00004858,0.00000094,0.00000753,-0.00000024,-0.00000444,-0.00001
 977,0.00001461,-0.00000716,-0.00000139,0.00000438,0.00000394,-0.000024
 37,0.00005366,0.00000805,-0.00000492,-0.00000852,-0.00000524,0.0000293
 4,0.00003319,-0.00000795,-0.00014118,-0.00383021,0.00054261,0.00200902
 ,0.00092915,0.00047033,-0.00381002,0.00344189,0.00635299,-0.06473679,-
 0.09666524,-0.24008449,0.07156850,0.10696150,0.25078344,0.00012195,0.0
 0007303,-0.00007566,-0.00013781,0.00001112,0.00003754,-0.00056121,0.00
 039485,-0.00089683,0.00001472,-0.00019327,-0.00010225,-0.00006595,-0.0
 0027193,0.00006668,-0.00008171,0.00017107,-0.00000510,-0.00002360,-0.0
 0001843,-0.00000480,0.00001876,0.00003155,-0.00001594,-0.00001367,0.00
 001195,0.00002195,-0.00013487,0.00022993,0.00001487,0.00001098,-0.0000
 4320,0.00000503,0.00012370,0.00016506,0.00010918,0.00118506,-0.0092213
 0,0.00069523,0.00167192,0.00313403,0.00013386,-0.03386192,-0.01319252,
 0.02846327,-0.06839265,-0.03867715,0.05514777,0.00579932,0.00512487,-0
 .00683662,0.08886502,-0.00006737,0.00000602,-0.00000928,0.00002955,-0.
 00002816,-0.00008502,-0.00013969,-0.00005107,0.00055081,-0.00004411,0.
 00002434,-0.00005105,0.00005125,0.00001352,0.00001123,0.00002156,-0.00
 003463,-0.00000153,-0.00000256,-0.00000140,0.00000988,0.00002718,-0.00
 000941,0.00000091,-0.00000423,0.00000061,-0.00000517,-0.00002077,0.000
 01593,-0.00000265,0.00000445,-0.00000218,0.00000119,0.00002271,0.00001
 468,0.00003119,0.00192361,0.00143707,-0.00068622,-0.00040510,-0.000266
 90,-0.00017143,-0.00199359,0.00132840,-0.00251357,-0.04200044,-0.12192
 092,0.10939695,0.00448862,0.00785165,-0.01154349,0.04491672,0.13104962
 ,-0.00005285,-0.00001706,0.00001088,-0.00004403,0.00002887,0.00000940,
 0.00001971,-0.00029104,-0.00041081,-0.00000859,0.00004093,0.00000782,0
 .00003734,0.00003443,0.00000283,-0.00001687,-0.00005112,-0.00000420,-0
 .00000794,0.00000042,-0.00000350,0.00002275,-0.00001467,-0.00000846,0.
 00000087,-0.00000463,0.00000313,0.00002158,-0.00005150,0.00000272,0.00
 000548,0.00000856,-0.00000422,-0.00002642,-0.00002999,-0.00000766,0.00
 033671,0.00386765,0.00085966,-0.00205421,-0.00098395,0.00034960,0.0033
 9780,-0.00401938,0.00594567,0.06184131,0.10821054,-0.21884230,0.007473
 06,0.01449914,-0.02150575,-0.06835348,-0.11862703,0.22747760,0.0000365
 4,-0.00004603,-0.00000200,0.00006736,0.00012052,0.00000631,-0.00060372
 ,0.00210225,0.00010134,-0.00054706,-0.00033659,-0.00001821,0.00002974,
 -0.00001016,-0.00000036,-0.00003155,0.00007932,0.00000378,-0.00002995,
 -0.00001622,-0.00000092,0.00004039,0.00002444,0.00000126,-0.00001014,-
 0.00000104,-0.00000010,-0.00018239,0.00018087,0.00000840,0.00001577,-0
 .00004740,-0.00000231,0.00003909,-0.00004802,-0.00000278,-0.00679091,-
 0.00692738,-0.00035905,0.00318126,0.00177533,0.00009375,-0.03177842,0.
 04699479,0.00223844,-0.07598556,0.01892196,0.00096880,0.00498454,-0.00
 865525,0.00113222,0.00504955,-0.00864963,-0.00197960,0.56400493,0.0000
 1570,-0.00003600,0.00000124,-0.00007189,0.00008461,0.00000570,-0.00001
 140,0.00047727,0.00002942,-0.00008154,-0.00014997,-0.00000939,-0.00006
 115,-0.00002986,-0.00000119,-0.00002679,0.00004733,0.00000168,-0.00002
 299,-0.00000461,-0.00000097,0.00001448,-0.00000123,-0.00000061,0.00000
 041,-0.00000319,-0.00000065,-0.00003333,0.00003048,0.00000178,0.000007
 74,-0.00001083,-0.00000075,-0.00002649,0.00001523,-0.00000827,-0.00171
 632,-0.00196506,-0.00010691,0.00128176,0.00061382,-0.00001753,0.005465
 03,0.00072877,-0.00001207,0.03256610,-0.20447030,-0.00583240,0.0046098
 2,-0.01397993,0.00066175,0.00559241,-0.01639773,-0.00239772,0.02826850
 ,0.49310979,0.00000099,0.00000107,-0.00005996,-0.00000322,0.00000616,-
 0.00003416,-0.00000203,0.00003583,-0.00012194,-0.00000583,-0.00001015,
 0.00003549,-0.00000286,-0.00000109,-0.00000912,-0.00000147,0.00000198,
 0.00001168,-0.00000126,-0.00000096,0.00001367,0.00000082,-0.00000059,0
 .00001183,-0.00000004,-0.00000065,0.00000989,-0.00000221,0.00000245,-0
 .00000740,0.00000042,-0.00000092,0.00000475,-0.00000162,-0.00000829,0.
 00017945,-0.00010491,-0.00011962,0.00008720,0.00006756,-0.00001513,0.0
 0103404,0.00017723,0.00010715,0.00129635,0.00164776,-0.00587286,-0.085
 66285,0.01004851,-0.02667085,0.00133299,-0.00952695,0.02485437,0.00368
 565,0.00138702,-0.00382112,0.57139953,0.00001576,0.00002000,0.00000098
 ,0.00000005,-0.00002156,-0.00000102,-0.00006140,0.00016103,0.00000774,
 -0.00008387,-0.00006118,-0.00000320,0.00006337,-0.00013062,-0.00000624
 ,-0.00002384,0.00004257,0.00000204,-0.00000668,-0.00000912,-0.00000047
 ,0.00001949,0.00000316,0.00000021,-0.00000893,0.00000329,0.00000014,-0
 .00009433,0.00014125,0.00000667,0.00001181,-0.00003029,-0.00000146,0.0
 0006309,0.00001107,0.00000083,0.00041649,-0.00172311,-0.00008475,0.000
 23503,0.00074370,0.00003772,-0.00017781,0.00353125,0.00017150,-0.00968
 682,-0.00258025,-0.00014962,0.00034059,0.00036496,0.00038219,0.0003424
 2,0.00040155,-0.00034221,-0.30795565,0.01032259,-0.00024051,0.33565256
 ,-0.00001462,0.00003437,0.00000070,0.00004196,-0.00009729,-0.00000450,
 0.00016279,-0.00069601,-0.00003268,0.00018480,0.00015750,0.00000936,-0
 .00000051,0.00002721,0.00000112,0.00002570,-0.00003832,-0.00000149,0.0
 0002249,0.00000623,0.00000040,-0.00002498,0.00000050,-0.00000002,0.000
 00294,0.00000291,0.00000017,0.00006890,-0.00006545,-0.00000301,-0.0000
 0962,0.00001978,0.00000084,0.00001623,-0.00001572,0.00000160,0.0016808
 8,0.00239763,0.00009863,-0.00067864,-0.00061357,-0.00002501,0.00473764
 ,-0.00868206,-0.00046822,0.02982040,0.00340502,0.00036908,-0.00059159,
 0.00094737,-0.00065528,-0.00060220,0.00088536,0.00074154,0.00765067,-0
 .04870913,-0.00012417,-0.01166215,0.05056844,-0.00000073,0.00000080,0.
 00001951,0.00000208,-0.00000468,-0.00000401,0.00000799,-0.00003319,-0.
 00002096,0.00000902,0.00000870,-0.00002112,0.00000013,0.00000077,0.000
 00395,0.00000123,-0.00000146,-0.00000650,0.00000110,0.00000032,-0.0000
 0070,-0.00000118,0.00000006,-0.00000053,0.00000012,0.00000017,-0.00000
 039,0.00000316,-0.00000283,-0.00000042,-0.00000045,0.00000079,0.000002
 16,0.00000109,0.00000161,-0.00004742,0.00008352,0.00009013,0.00048694,
 -0.00003258,-0.00002119,-0.00014654,0.00023196,-0.00047247,0.00100488,
 0.00146215,0.00027584,-0.00227333,-0.00009607,0.00012205,-0.00001398,0
 .00003854,-0.00002994,0.00004646,-0.00037311,-0.00011652,-0.04578332,0
 .00025501,0.00023260,0.04522754,-0.00001353,-0.00002987,0.00001399,-0.
 00002330,0.00005023,-0.00000641,0.00006508,-0.00008337,0.00007518,0.00
 004090,0.00001236,-0.00000895,-0.00003897,0.00007617,0.00000374,0.0000
 1284,-0.00002509,-0.00000790,-0.00000168,0.00000558,-0.00000043,-0.000
 00198,-0.00000910,0.00000135,0.00000612,-0.00000421,-0.00000034,0.0000
 5587,-0.00008859,-0.00000575,-0.00000504,0.00001679,0.00000248,-0.0000
 4741,-0.00000969,-0.00003424,-0.00002320,0.00098132,0.00005192,-0.0003
 6369,-0.00036109,0.00001104,0.00196414,-0.00094376,-0.00051252,0.00211
 610,0.00648944,-0.00928717,0.00003414,-0.00078126,0.00017202,0.0000377
 7,0.00219860,-0.00001672,-0.07718307,-0.04695041,0.07094660,-0.0096066
 7,-0.01673828,0.02587439,0.07934807,0.00001903,0.00001556,-0.00002142,
 0.00004052,-0.00004488,-0.00000807,0.00002939,0.00001629,0.00004830,0.
 00001477,0.00002022,0.00001021,-0.00000368,0.00001222,-0.00000176,0.00
 001518,0.00000375,0.00000641,0.00000766,0.00000204,0.00000315,-0.00001
 699,0.00001080,0.00000772,0.00000039,0.00000252,0.00000225,0.00000487,
 0.00000154,-0.00000669,-0.00000593,0.00000127,0.00000711,0.00002633,0.
 00000573,0.00003940,-0.00039252,-0.00083295,-0.00018161,0.00073518,0.0
 0028814,-0.00020771,-0.00121891,0.00279780,-0.00086490,-0.01268663,-0.
 01913114,0.02855457,-0.00040618,0.00126401,-0.00035862,0.00282361,-0.0
 0517477,-0.00133296,-0.04455857,-0.11452978,0.10357586,0.00025655,0.00
 042155,-0.00232936,0.04937268,0.12722644,0.00000797,-0.00003045,0.0000
 1322,-0.00005963,0.00007489,0.00001944,-0.00000034,0.00006588,0.000023
 12,0.00000043,-0.00004786,0.00000086,-0.00003051,0.00001774,-0.0000006
 1,-0.00000644,0.00000191,-0.00000323,-0.00001373,0.00000120,-0.0000038
 2,0.00000864,-0.00000973,-0.00000394,0.00000283,-0.00000338,-0.0000024
 2,0.00001363,-0.00003522,0.00000152,0.00000301,0.00000443,-0.00000272,
 -0.00004605,0.00002038,-0.00004411,-0.00007165,0.00003479,0.00001492,-
 0.00008264,-0.00025183,-0.00006655,-0.00062402,0.00005769,0.00029186,-
 0.00110352,-0.00130679,0.00236248,-0.00054831,0.00034464,0.00093010,0.
 00058371,-0.00081398,0.00144935,0.07046183,0.10567954,-0.21343652,-0.0
 0030121,-0.00155734,0.00065078,-0.07811950,-0.11600155,0.22802685,-0.0
 0001341,-0.00002850,-0.00001705,-0.00002367,0.00004975,0.00001109,0.00
 006553,-0.00007520,-0.00008263,0.00004084,0.00001116,0.00001036,-0.000
 03913,0.00007630,0.00000350,0.00001276,-0.00002574,0.00000551,-0.00000
 176,0.00000551,0.00000099,-0.00000192,-0.00000898,-0.00000222,0.000006
 13,-0.00000424,-0.00000002,0.00005594,-0.00008894,-0.00000267,-0.00000
 502,0.00001698,-0.00000084,-0.00004782,-0.00001293,0.00003318,-0.00002
 351,0.00098243,0.00004445,-0.00036397,-0.00035992,-0.00004839,0.001958
 21,-0.00099088,0.00042605,0.00205762,0.00553382,0.00989134,0.00003954,
 0.00218389,0.00022630,0.00003223,-0.00075833,-0.00025369,-0.07635077,-
 0.03914221,-0.07438400,-0.00945466,-0.01409280,-0.02746735,0.00362751,
 0.00594325,0.00992547,0.07842933,0.00001960,0.00001041,0.00002127,0.00
 003435,-0.00003759,0.00000256,0.00002939,0.00002758,-0.00004777,0.0000
 1478,0.00001625,-0.00000859,-0.00000669,0.00001363,0.00000314,0.000014
 48,0.00000450,-0.00000558,0.00000626,0.00000241,-0.00000250,-0.0000159
 9,0.00001044,-0.00000640,0.00000068,0.00000235,-0.00000177,0.00000614,
 -0.00000257,0.00000632,-0.00000556,0.00000236,-0.00000664,0.00002179,0
 .00001110,-0.00003373,-0.00039806,-0.00083838,0.00009497,0.00072106,0.
 00023937,0.00024213,-0.00128115,0.00269414,0.00109704,-0.01256329,-0.0
 1622556,-0.03048349,0.00286230,-0.00532335,0.00067377,-0.00046019,0.00
 125998,0.00038899,-0.03682236,-0.09481969,-0.09193848,0.00021530,0.000
 04368,0.00227782,0.00682156,0.00762364,0.01375507,0.04078560,0.1052853
 0,-0.00000620,0.00003000,0.00001825,0.00006309,-0.00008025,0.00001274,
 0.00000356,-0.00006584,0.00001146,0.00000127,0.00004944,0.00000477,0.0
 0002976,-0.00001589,-0.00000185,0.00000801,-0.00000128,-0.00000391,0.0
 0001442,-0.00000055,-0.00000412,-0.00001027,0.00001110,-0.00000368,-0.
 00000273,0.00000383,-0.00000229,-0.00001278,0.00003429,0.00000552,-0.0
 0000359,-0.00000383,-0.00000384,0.00004838,-0.00001497,-0.00004917,0.0
 0003209,-0.00011433,0.00002173,0.00015327,0.00028007,-0.00001741,0.000
 50905,0.00017648,0.00040200,-0.00014663,-0.00051563,-0.00048490,-0.000
 30950,0.00015131,0.00159569,0.00049999,-0.00031618,0.00093614,-0.07366
 473,-0.09405501,-0.23398724,0.00026566,0.00141567,0.00087699,-0.009152
 76,-0.01094033,-0.02022058,0.08168063,0.10397188,0.25089370\\-0.000002
 96,0.00000696,0.00000155,0.00000875,-0.00001137,0.00000381,-0.00000958
 ,0.00000928,-0.00000290,-0.00000218,-0.00000203,-0.00000041,0.00000356
 ,0.00001879,-0.00000003,-0.00000035,-0.00001158,-0.00000061,-0.0000029
 1,0.00000018,-0.00000121,0.00000122,-0.00000200,0.00000154,0.00000025,
 -0.00000122,0.00000221,0.00000359,-0.00000660,-0.00000397,0.00000046,-
 0.00000052,0.00000156,-0.00000150,0.00000329,-0.00000208,-0.00001936,-
 0.00000132,0.00000035,0.00001127,0.00000898,0.00000022,0.00002124,-0.0
 0000707,-0.00000164,-0.00001775,0.00000180,0.00000281,0.00000278,-0.00
 000096,0.00000016,0.00000202,-0.00000158,-0.00000052,0.00000204,-0.000
 00450,-0.00000092,-0.00000028,0.00000106,0.00000007,0.00000002,0.00000
 033,-0.00000091,-0.00000034,0.00000006,0.00000094\\\@


 I CLAIM NOT TO HAVE CONTROLLED EVENTS,
 BUT CONFESS PLAINLY THAT EVENTS HAVE CONTROLLED ME.

                                         A. LINCOLN
 Job cpu time:       0 days  1 hours  2 minutes 48.4 seconds.
 File lengths (MBytes):  RWF=    218 Int=      0 D2E=      0 Chk=      9 Scr=      1
 Normal termination of Gaussian 09 at Tue Apr 23 12:06:29 2024.
