	You are loading a legacy vmd module, please load an up to date module instead.


	 module load container_env vmd

	Please run vmd command with crun.vmd prepend to it:
	
	 crun.vmd vmd

	 
module: Command not found.
module: Command not found.
 Entering Gaussian System, Link 0=g09
 Initial command:
 /opt/gaussian/g09/l1.exe "/tmp/G09-33.com.o10577421.tmp/Gau-1371692.inp" -scrdir="/tmp/G09-33.com.o10577421.tmp/"
 Entering Link 1 = /opt/gaussian/g09/l1.exe PID=   1371693.
  
 Copyright (c) 1988,1990,1992,1993,1995,1998,2003,2009,2013,
            Gaussian, Inc.  All Rights Reserved.
  
 This is part of the Gaussian(R) 09 program.  It is based on
 the Gaussian(R) 03 system (copyright 2003, Gaussian, Inc.),
 the Gaussian(R) 98 system (copyright 1998, Gaussian, Inc.),
 the Gaussian(R) 94 system (copyright 1995, Gaussian, Inc.),
 the Gaussian 92(TM) system (copyright 1992, Gaussian, Inc.),
 the Gaussian 90(TM) system (copyright 1990, Gaussian, Inc.),
 the Gaussian 88(TM) system (copyright 1988, Gaussian, Inc.),
 the Gaussian 86(TM) system (copyright 1986, Carnegie Mellon
 University), and the Gaussian 82(TM) system (copyright 1983,
 Carnegie Mellon University). Gaussian is a federally registered
 trademark of Gaussian, Inc.
  
 This software contains proprietary and confidential information,
 including trade secrets, belonging to Gaussian, Inc.
  
 This software is provided under written license and may be
 used, copied, transmitted, or stored only in accord with that
 written license.
  
 The following legend is applicable only to US Government
 contracts under FAR:
  
                    RESTRICTED RIGHTS LEGEND
  
 Use, reproduction and disclosure by the US Government is
 subject to restrictions as set forth in subparagraphs (a)
 and (c) of the Commercial Computer Software - Restricted
 Rights clause in FAR 52.227-19.
  
 Gaussian, Inc.
 340 Quinnipiac St., Bldg. 40, Wallingford CT 06492
  
  
 ---------------------------------------------------------------
 Warning -- This program may not be used in any manner that
 competes with the business of Gaussian, Inc. or will provide
 assistance to any competitor of Gaussian, Inc.  The licensee
 of this program is prohibited from giving any competitor of
 Gaussian, Inc. access to this program.  By using this program,
 the user acknowledges that Gaussian, Inc. is engaged in the
 business of creating and licensing software in the field of
 computational chemistry and represents and warrants to the
 licensee that it is not a competitor of Gaussian, Inc. and that
 it will not use this program in any manner prohibited above.
 ---------------------------------------------------------------
  

 Cite this work as:
 Gaussian 09, Revision D.01,
 M. J. Frisch, G. W. Trucks, H. B. Schlegel, G. E. Scuseria, 
 M. A. Robb, J. R. Cheeseman, G. Scalmani, V. Barone, B. Mennucci, 
 G. A. Petersson, H. Nakatsuji, M. Caricato, X. Li, H. P. Hratchian, 
 A. F. Izmaylov, J. Bloino, G. Zheng, J. L. Sonnenberg, M. Hada, 
 M. Ehara, K. Toyota, R. Fukuda, J. Hasegawa, M. Ishida, T. Nakajima, 
 Y. Honda, O. Kitao, H. Nakai, T. Vreven, J. A. Montgomery, Jr., 
 J. E. Peralta, F. Ogliaro, M. Bearpark, J. J. Heyd, E. Brothers, 
 K. N. Kudin, V. N. Staroverov, T. Keith, R. Kobayashi, J. Normand, 
 K. Raghavachari, A. Rendell, J. C. Burant, S. S. Iyengar, J. Tomasi, 
 M. Cossi, N. Rega, J. M. Millam, M. Klene, J. E. Knox, J. B. Cross, 
 V. Bakken, C. Adamo, J. Jaramillo, R. Gomperts, R. E. Stratmann, 
 O. Yazyev, A. J. Austin, R. Cammi, C. Pomelli, J. W. Ochterski, 
 R. L. Martin, K. Morokuma, V. G. Zakrzewski, G. A. Voth, 
 P. Salvador, J. J. Dannenberg, S. Dapprich, A. D. Daniels, 
 O. Farkas, J. B. Foresman, J. V. Ortiz, J. Cioslowski, 
 and D. J. Fox, Gaussian, Inc., Wallingford CT, 2013.
 
 ******************************************
 Gaussian 09:  ES64L-G09RevD.01 24-Apr-2013
                23-Apr-2024 
 ******************************************
 %nprocshared=20
 Will use up to   20 processors via shared memory.
 %mem=4GB
 %chk=33.chk
 ----------------------------------------------------------------------
 # opt freq=noraman b3lyp/6-311+g(d,p) pop=(npa,hirshfeld,chelpg,mbs) g
 eom=connectivity
 ----------------------------------------------------------------------
 1/14=-1,18=20,19=15,26=3,38=1,57=2/1,3;
 2/9=110,12=2,17=6,18=5,40=1/2;
 3/5=4,6=6,7=111,11=2,16=1,25=1,30=1,71=1,74=-5/1,2,3;
 4//1;
 5/5=2,38=5/2;
 6/7=2,8=2,9=2,10=2,15=8,20=3,27=100,28=1,40=-1,79=1/1,2,7;
 7//1,2,3,16;
 1/14=-1,18=20,19=15,26=3/3(2);
 2/9=110/2;
 99//99;
 2/9=110/2;
 3/5=4,6=6,7=111,11=2,16=1,25=1,30=1,71=1,74=-5/1,2,3;
 4/5=5,16=3,69=1/1;
 5/5=2,38=5/2;
 7//1,2,3,16;
 1/14=-1,18=20,19=15,26=3/3(-5);
 2/9=110/2;
 6/7=2,8=2,9=2,10=2,15=8,19=2,20=3,27=100,28=1,40=-1,79=1/1,2,7;
 99/9=1/99;
 -------------------
 Title Card Required
 -------------------
 Symbolic Z-matrix:
 Charge =  0 Multiplicity = 1
 C                     0.08755  -0.03891   0. 
 C                     1.48271  -0.03891   0. 
 C                     2.18025   1.16884   0. 
 C                     1.48259   2.37735  -0.0012 
 C                     0.08777   2.37727  -0.00168 
 C                    -0.60983   1.16907  -0.00068 
 H                    -0.46221  -0.99123   0.00045 
 H                     2.01759   3.304    -0.00175 
 H                     2.01764  -0.9656    0. 
 C                     3.72025   1.16895   0.00089 
 O                     4.51218   2.11044   0.00103 
 O                     4.23514  -0.08655   0.00153 
 C                     5.66452  -0.04436   0.00234 
 H                     6.00565   0.47054   0.87607 
 H                     6.00664   0.47016  -0.87123 
 C                     6.22047  -1.4805    0.00297 
 H                     7.29     -1.44893   0.00343 
 H                     5.87846  -1.99497   0.87661 
 H                     5.87923  -1.99545  -0.87069 
 H                    -0.44725   3.30391  -0.00281 
 O                    -2.03983   1.1691   -0.00036 
 H                    -2.36065   1.30284  -0.89523 
 

 GradGradGradGradGradGradGradGradGradGradGradGradGradGradGradGradGradGrad
 Berny optimization.
 Initialization pass.
                           ----------------------------
                           !    Initial Parameters    !
                           ! (Angstroms and Degrees)  !
 --------------------------                            --------------------------
 ! Name  Definition              Value          Derivative Info.                !
 --------------------------------------------------------------------------------
 ! R1    R(1,2)                  1.3952         estimate D2E/DX2                !
 ! R2    R(1,6)                  1.3948         estimate D2E/DX2                !
 ! R3    R(1,7)                  1.0996         estimate D2E/DX2                !
 ! R4    R(2,3)                  1.3947         estimate D2E/DX2                !
 ! R5    R(2,9)                  1.07           estimate D2E/DX2                !
 ! R6    R(3,4)                  1.3954         estimate D2E/DX2                !
 ! R7    R(3,10)                 1.54           estimate D2E/DX2                !
 ! R8    R(4,5)                  1.3948         estimate D2E/DX2                !
 ! R9    R(4,8)                  1.07           estimate D2E/DX2                !
 ! R10   R(5,6)                  1.3951         estimate D2E/DX2                !
 ! R11   R(5,20)                 1.07           estimate D2E/DX2                !
 ! R12   R(6,21)                 1.43           estimate D2E/DX2                !
 ! R13   R(10,11)                1.2303         estimate D2E/DX2                !
 ! R14   R(10,12)                1.357          estimate D2E/DX2                !
 ! R15   R(12,13)                1.43           estimate D2E/DX2                !
 ! R16   R(13,14)                1.07           estimate D2E/DX2                !
 ! R17   R(13,15)                1.07           estimate D2E/DX2                !
 ! R18   R(13,16)                1.54           estimate D2E/DX2                !
 ! R19   R(16,17)                1.07           estimate D2E/DX2                !
 ! R20   R(16,18)                1.07           estimate D2E/DX2                !
 ! R21   R(16,19)                1.07           estimate D2E/DX2                !
 ! R22   R(21,22)                0.96           estimate D2E/DX2                !
 ! A1    A(2,1,6)              119.9985         estimate D2E/DX2                !
 ! A2    A(2,1,7)              119.9972         estimate D2E/DX2                !
 ! A3    A(6,1,7)              120.0043         estimate D2E/DX2                !
 ! A4    A(1,2,3)              120.0086         estimate D2E/DX2                !
 ! A5    A(1,2,9)              119.9957         estimate D2E/DX2                !
 ! A6    A(3,2,9)              119.9957         estimate D2E/DX2                !
 ! A7    A(2,3,4)              119.9942         estimate D2E/DX2                !
 ! A8    A(2,3,10)             120.0128         estimate D2E/DX2                !
 ! A9    A(4,3,10)             119.993          estimate D2E/DX2                !
 ! A10   A(3,4,5)              119.994          estimate D2E/DX2                !
 ! A11   A(3,4,8)              120.003          estimate D2E/DX2                !
 ! A12   A(5,4,8)              120.003          estimate D2E/DX2                !
 ! A13   A(4,5,6)              120.0047         estimate D2E/DX2                !
 ! A14   A(4,5,20)             119.9976         estimate D2E/DX2                !
 ! A15   A(6,5,20)             119.9976         estimate D2E/DX2                !
 ! A16   A(1,6,5)              120.0            estimate D2E/DX2                !
 ! A17   A(1,6,21)             120.0            estimate D2E/DX2                !
 ! A18   A(5,6,21)             120.0            estimate D2E/DX2                !
 ! A19   A(3,10,11)            130.0733         estimate D2E/DX2                !
 ! A20   A(3,10,12)            112.2947         estimate D2E/DX2                !
 ! A21   A(11,10,12)           117.632          estimate D2E/DX2                !
 ! A22   A(10,12,13)           110.6079         estimate D2E/DX2                !
 ! A23   A(12,13,14)           109.4712         estimate D2E/DX2                !
 ! A24   A(12,13,15)           109.4712         estimate D2E/DX2                !
 ! A25   A(12,13,16)           109.4712         estimate D2E/DX2                !
 ! A26   A(14,13,15)           109.4712         estimate D2E/DX2                !
 ! A27   A(14,13,16)           109.4713         estimate D2E/DX2                !
 ! A28   A(15,13,16)           109.4712         estimate D2E/DX2                !
 ! A29   A(13,16,17)           109.4712         estimate D2E/DX2                !
 ! A30   A(13,16,18)           109.4712         estimate D2E/DX2                !
 ! A31   A(13,16,19)           109.4712         estimate D2E/DX2                !
 ! A32   A(17,16,18)           109.4713         estimate D2E/DX2                !
 ! A33   A(17,16,19)           109.4712         estimate D2E/DX2                !
 ! A34   A(18,16,19)           109.4712         estimate D2E/DX2                !
 ! A35   A(6,21,22)            109.5107         estimate D2E/DX2                !
 ! D1    D(6,1,2,3)              0.0323         estimate D2E/DX2                !
 ! D2    D(6,1,2,9)           -179.9677         estimate D2E/DX2                !
 ! D3    D(7,1,2,3)           -179.9729         estimate D2E/DX2                !
 ! D4    D(7,1,2,9)              0.0271         estimate D2E/DX2                !
 ! D5    D(2,1,6,5)              0.0149         estimate D2E/DX2                !
 ! D6    D(2,1,6,21)          -179.9851         estimate D2E/DX2                !
 ! D7    D(7,1,6,5)           -179.9798         estimate D2E/DX2                !
 ! D8    D(7,1,6,21)             0.0202         estimate D2E/DX2                !
 ! D9    D(1,2,3,4)             -0.0568         estimate D2E/DX2                !
 ! D10   D(1,2,3,10)           179.9619         estimate D2E/DX2                !
 ! D11   D(9,2,3,4)            179.9432         estimate D2E/DX2                !
 ! D12   D(9,2,3,10)            -0.0381         estimate D2E/DX2                !
 ! D13   D(2,3,4,5)              0.0341         estimate D2E/DX2                !
 ! D14   D(2,3,4,8)           -179.9659         estimate D2E/DX2                !
 ! D15   D(10,3,4,5)          -179.9846         estimate D2E/DX2                !
 ! D16   D(10,3,4,8)             0.0154         estimate D2E/DX2                !
 ! D17   D(2,3,10,11)          180.0            estimate D2E/DX2                !
 ! D18   D(2,3,10,12)            0.0031         estimate D2E/DX2                !
 ! D19   D(4,3,10,11)            0.0187         estimate D2E/DX2                !
 ! D20   D(4,3,10,12)         -179.9782         estimate D2E/DX2                !
 ! D21   D(3,4,5,6)              0.0131         estimate D2E/DX2                !
 ! D22   D(3,4,5,20)          -179.9869         estimate D2E/DX2                !
 ! D23   D(8,4,5,6)           -179.9869         estimate D2E/DX2                !
 ! D24   D(8,4,5,20)             0.0131         estimate D2E/DX2                !
 ! D25   D(4,5,6,1)             -0.0376         estimate D2E/DX2                !
 ! D26   D(4,5,6,21)           179.9624         estimate D2E/DX2                !
 ! D27   D(20,5,6,1)           179.9624         estimate D2E/DX2                !
 ! D28   D(20,5,6,21)           -0.0376         estimate D2E/DX2                !
 ! D29   D(1,6,21,22)          -98.5385         estimate D2E/DX2                !
 ! D30   D(5,6,21,22)           81.4615         estimate D2E/DX2                !
 ! D31   D(3,10,12,13)         179.9996         estimate D2E/DX2                !
 ! D32   D(11,10,12,13)          0.0023         estimate D2E/DX2                !
 ! D33   D(10,12,13,14)         60.0034         estimate D2E/DX2                !
 ! D34   D(10,12,13,15)        -59.9966         estimate D2E/DX2                !
 ! D35   D(10,12,13,16)       -179.9965         estimate D2E/DX2                !
 ! D36   D(12,13,16,17)        179.9922         estimate D2E/DX2                !
 ! D37   D(12,13,16,18)        -60.0078         estimate D2E/DX2                !
 ! D38   D(12,13,16,19)         59.9922         estimate D2E/DX2                !
 ! D39   D(14,13,16,17)        -60.0078         estimate D2E/DX2                !
 ! D40   D(14,13,16,18)         59.9922         estimate D2E/DX2                !
 ! D41   D(14,13,16,19)        179.9922         estimate D2E/DX2                !
 ! D42   D(15,13,16,17)         59.9922         estimate D2E/DX2                !
 ! D43   D(15,13,16,18)        179.9922         estimate D2E/DX2                !
 ! D44   D(15,13,16,19)        -60.0078         estimate D2E/DX2                !
 --------------------------------------------------------------------------------
 Trust Radius=3.00D-01 FncErr=1.00D-07 GrdErr=1.00D-06
 Number of steps in this run=    111 maximum allowed number of steps=    132.
 GradGradGradGradGradGradGradGradGradGradGradGradGradGradGradGradGradGrad

                          Input orientation:                          
 ---------------------------------------------------------------------
 Center     Atomic      Atomic             Coordinates (Angstroms)
 Number     Number       Type             X           Y           Z
 ---------------------------------------------------------------------
      1          6           0        0.087549   -0.038911    0.000000
      2          6           0        1.482709   -0.038911    0.000000
      3          6           0        2.180247    1.168840    0.000000
      4          6           0        1.482593    2.377349   -0.001199
      5          6           0        0.087768    2.377271   -0.001678
      6          6           0       -0.609833    1.169065   -0.000682
      7          1           0       -0.462210   -0.991228    0.000450
      8          1           0        2.017590    3.303998   -0.001751
      9          1           0        2.017639   -0.965598    0.000000
     10          6           0        3.720246    1.168953    0.000888
     11          8           0        4.512184    2.110439    0.001031
     12          8           0        4.235138   -0.086554    0.001534
     13          6           0        5.664515   -0.044356    0.002337
     14          1           0        6.005646    0.470545    0.876068
     15          1           0        6.006639    0.470158   -0.871234
     16          6           0        6.220469   -1.480502    0.002970
     17          1           0        7.290003   -1.448928    0.003433
     18          1           0        5.878456   -1.994974    0.876610
     19          1           0        5.879227   -1.995446   -0.870693
     20          1           0       -0.447246    3.303910   -0.002809
     21          8           0       -2.039833    1.169104   -0.000360
     22          1           0       -2.360655    1.302841   -0.895228
 ---------------------------------------------------------------------
                    Distance matrix (angstroms):
                    1          2          3          4          5
     1  C    0.000000
     2  C    1.395160   0.000000
     3  C    2.416205   1.394712   0.000000
     4  C    2.790065   2.416260   1.395427   0.000000
     5  C    2.416183   2.789946   2.416356   1.394825   0.000000
     6  C    1.394829   2.416183   2.790080   2.416236   1.395138
     7  H    1.099610   2.165553   3.412986   3.889675   3.413102
     8  H    3.860065   3.385431   2.141345   1.070000   2.140803
     9  H    2.141027   1.070000   2.140623   3.385495   3.859946
    10  C    3.828241   2.542737   1.540000   2.543093   3.828178
    11  O    4.919055   3.714489   2.514864   3.041327   4.432456
    12  O    4.147863   2.752842   2.408027   3.694230   4.824016
    13  C    5.576970   4.181811   3.689442   4.832510   6.079836
    14  H    6.004241   4.635084   3.986075   4.986333   6.279118
    15  H    6.004484   4.635099   3.986036   4.986114   6.279032
    16  C    6.300072   4.952228   4.831399   6.109870   7.245168
    17  H    7.339176   5.976021   5.741283   6.954598   8.155490
    18  H    6.174887   4.890524   4.945191   6.261898   7.308898
    19  H    6.174923   4.890349   4.945025   6.261610   7.308683
    20  H    3.385331   3.859946   3.385594   2.140746   1.070000
    21  O    2.446437   3.723923   4.220080   3.723888   2.446703
    22  H    2.931797   4.168114   4.630246   4.089549   2.819150
                    6          7          8          9         10
     6  C    0.000000
     7  H    2.165331   0.000000
     8  H    3.385453   4.959675   0.000000
     9  H    3.385321   2.479982   4.269597   0.000000
    10  C    4.330080   4.707369   2.730836   2.730417   0.000000
    11  O    5.207807   5.862161   2.765428   3.960399   1.230269
    12  O    5.005031   4.783672   4.051342   2.385377   1.356986
    13  C    6.390607   6.199463   4.950915   3.761436   2.291790
    14  H    6.709783   6.688546   4.970273   4.328302   2.544949
    15  H    6.709995   6.688908   4.969825   4.328113   2.544897
    16  C    7.326203   6.700567   6.368333   4.234255   3.642901
    17  H    8.322338   7.765713   7.098498   5.294473   4.426790
    18  H    7.271773   6.479136   6.614901   4.090717   3.928764
    19  H    7.271792   6.479288   6.614485   4.090300   3.928647
    20  H    2.141028   4.295165   2.464836   4.929946   4.682526
    21  O    1.430000   2.675056   4.584807   4.584761   5.760080
    22  H    1.970656   3.109515   4.896116   5.011657   6.148033
                   11         12         13         14         15
    11  O    0.000000
    12  O    2.214392   0.000000
    13  C    2.443565   1.430000   0.000000
    14  H    2.384402   2.051796   1.070000   0.000000
    15  H    2.384274   2.051796   1.070000   1.747303   0.000000
    16  C    3.976569   2.425826   1.540000   2.148263   2.148263
    17  H    4.515017   3.344886   2.148263   2.468895   2.468797
    18  H    4.414493   2.666143   2.148263   2.468798   3.024610
    19  H    4.414408   2.666023   2.148263   3.024611   2.468895
    20  H    5.101013   5.781002   6.968826   7.102126   7.101897
    21  O    6.619293   6.399371   7.799326   8.123167   8.123587
    22  H    6.977923   6.799933   8.186814   8.592159   8.408659
                   16         17         18         19         20
    16  C    0.000000
    17  H    1.070000   0.000000
    18  H    1.070000   1.747303   0.000000
    19  H    1.070000   1.747303   1.747303   0.000000
    20  H    8.206647   9.080447   8.298557   8.298232   0.000000
    21  O    8.674850   9.690198   8.572034   8.572244   2.663407
    22  H    9.065839  10.075466   9.049748   8.875526   2.908921
                   21         22
    21  O    0.000000
    22  H    0.960000   0.000000
 Stoichiometry    C9H10O3
 Framework group  C1[X(C9H10O3)]
 Deg. of freedom    60
 Full point group                 C1      NOp   1
 Largest Abelian subgroup         C1      NOp   1
 Largest concise Abelian subgroup C1      NOp   1
                         Standard orientation:                         
 ---------------------------------------------------------------------
 Center     Atomic      Atomic             Coordinates (Angstroms)
 Number     Number       Type             X           Y           Z
 ---------------------------------------------------------------------
      1          6           0        2.009234   -1.323033   -0.030122
      2          6           0        0.655256   -0.986740   -0.019093
      3          6           0        0.269463    0.353521   -0.009793
      4          6           0        1.237871    1.358211   -0.010319
      5          6           0        2.591509    1.021921   -0.020866
      6          6           0        2.977246   -0.318791   -0.031164
      7          1           0        2.313185   -2.379771   -0.037903
      8          1           0        0.942060    2.386480   -0.002633
      9          1           0       -0.087283   -1.757151   -0.017771
     10          6           0       -1.225058    0.724839    0.001493
     11          8           0       -1.766654    1.829445    0.010561
     12          8           0       -2.027425   -0.369518    0.000979
     13          6           0       -3.404443    0.015979    0.011608
     14          1           0       -3.617418    0.602242   -0.857781
     15          1           0       -3.606391    0.593460    0.889465
     16          6           0       -4.290206   -1.243792    0.010866
     17          1           0       -5.320561   -0.955344    0.018956
     18          1           0       -4.088355   -1.821204   -0.867058
     19          1           0       -4.077134   -1.830123    0.880186
     20          1           0        3.334125    1.792260   -0.021058
     21          8           0        4.365043   -0.663443   -0.042789
     22          1           0        4.714823   -0.615411    0.849929
 ---------------------------------------------------------------------
 Rotational constants (GHZ):      2.6915587      0.4246470      0.3688472
 Standard basis: 6-311+G(d,p) (5D, 7F)
 There are   336 symmetry adapted cartesian basis functions of A   symmetry.
 There are   324 symmetry adapted basis functions of A   symmetry.
   324 basis functions,   512 primitive gaussians,   336 cartesian basis functions
    44 alpha electrons       44 beta electrons
       nuclear repulsion energy       658.7214260884 Hartrees.
 NAtoms=   22 NActive=   22 NUniq=   22 SFac= 1.00D+00 NAtFMM=   60 NAOKFM=F Big=F
 Integral buffers will be    131072 words long.
 Raffenetti 2 integral format.
 Two-electron integral symmetry is turned on.
 One-electron integrals computed using PRISM.
 NBasis=   324 RedAO= T EigKep=  1.52D-06  NBF=   324
 NBsUse=   324 1.00D-06 EigRej= -1.00D+00 NBFU=   324
 ExpMin= 4.38D-02 ExpMax= 8.59D+03 ExpMxC= 1.30D+03 IAcc=2 IRadAn=         4 AccDes= 0.00D+00
 Harris functional with IExCor=  402 and IRadAn=       4 diagonalized for initial guess.
 HarFok:  IExCor=  402 AccDes= 0.00D+00 IRadAn=         4 IDoV= 1 UseB2=F ITyADJ=14
 ICtDFT=  3500011 ScaDFX=  1.000000  1.000000  1.000000  1.000000
 FoFCou: FMM=F IPFlag=           0 FMFlag=      100000 FMFlg1=           0
         NFxFlg=           0 DoJE=T BraDBF=F KetDBF=T FulRan=T
         wScrn=  0.000000 ICntrl=     500 IOpCl=  0 I1Cent=   200000004 NGrid=           0
         NMat0=    1 NMatS0=      1 NMatT0=    0 NMatD0=    1 NMtDS0=    0 NMtDT0=    0
 Petite list used in FoFCou.
 Requested convergence on RMS density matrix=1.00D-08 within 128 cycles.
 Requested convergence on MAX density matrix=1.00D-06.
 Requested convergence on             energy=1.00D-06.
 No special actions if energy rises.
 SCF Done:  E(RB3LYP) =  -574.817816786     A.U. after   15 cycles
            NFock= 15  Conv=0.51D-08     -V/T= 2.0040

 **********************************************************************

            Population analysis using the SCF density.

 **********************************************************************

 Orbital symmetries:
       Occupied  (A) (A) (A) (A) (A) (A) (A) (A) (A) (A) (A) (A)
                 (A) (A) (A) (A) (A) (A) (A) (A) (A) (A) (A) (A)
                 (A) (A) (A) (A) (A) (A) (A) (A) (A) (A) (A) (A)
                 (A) (A) (A) (A) (A) (A) (A) (A)
       Virtual   (A) (A) (A) (A) (A) (A) (A) (A) (A) (A) (A) (A)
                 (A) (A) (A) (A) (A) (A) (A) (A) (A) (A) (A) (A)
                 (A) (A) (A) (A) (A) (A) (A) (A) (A) (A) (A) (A)
                 (A) (A) (A) (A) (A) (A) (A) (A) (A) (A) (A) (A)
                 (A) (A) (A) (A) (A) (A) (A) (A) (A) (A) (A) (A)
                 (A) (A) (A) (A) (A) (A) (A) (A) (A) (A) (A) (A)
                 (A) (A) (A) (A) (A) (A) (A) (A) (A) (A) (A) (A)
                 (A) (A) (A) (A) (A) (A) (A) (A) (A) (A) (A) (A)
                 (A) (A) (A) (A) (A) (A) (A) (A) (A) (A) (A) (A)
                 (A) (A) (A) (A) (A) (A) (A) (A) (A) (A) (A) (A)
                 (A) (A) (A) (A) (A) (A) (A) (A) (A) (A) (A) (A)
                 (A) (A) (A) (A) (A) (A) (A) (A) (A) (A) (A) (A)
                 (A) (A) (A) (A) (A) (A) (A) (A) (A) (A) (A) (A)
                 (A) (A) (A) (A) (A) (A) (A) (A) (A) (A) (A) (A)
                 (A) (A) (A) (A) (A) (A) (A) (A) (A) (A) (A) (A)
                 (A) (A) (A) (A) (A) (A) (A) (A) (A) (A) (A) (A)
                 (A) (A) (A) (A) (A) (A) (A) (A) (A) (A) (A) (A)
                 (A) (A) (A) (A) (A) (A) (A) (A) (A) (A) (A) (A)
                 (A) (A) (A) (A) (A) (A) (A) (A) (A) (A) (A) (A)
                 (A) (A) (A) (A) (A) (A) (A) (A) (A) (A) (A) (A)
                 (A) (A) (A) (A) (A) (A) (A) (A) (A) (A) (A) (A)
                 (A) (A) (A) (A) (A) (A) (A) (A) (A) (A) (A) (A)
                 (A) (A) (A) (A) (A) (A) (A) (A) (A) (A) (A) (A)
                 (A) (A) (A) (A)
 The electronic state is 1-A.
 Alpha  occ. eigenvalues --  -19.17311 -19.15483 -19.11615 -10.31405 -10.25527
 Alpha  occ. eigenvalues --  -10.22314 -10.20922 -10.19836 -10.19815 -10.19593
 Alpha  occ. eigenvalues --  -10.19354 -10.16389  -1.11754  -1.05159  -1.01512
 Alpha  occ. eigenvalues --   -0.87991  -0.79079  -0.77224  -0.76225  -0.67141
 Alpha  occ. eigenvalues --   -0.63751  -0.62328  -0.57955  -0.56188  -0.53463
 Alpha  occ. eigenvalues --   -0.50521  -0.49455  -0.47571  -0.46536  -0.45208
 Alpha  occ. eigenvalues --   -0.44485  -0.43284  -0.41796  -0.40919  -0.38968
 Alpha  occ. eigenvalues --   -0.38134  -0.37911  -0.36243  -0.35319  -0.32001
 Alpha  occ. eigenvalues --   -0.31393  -0.28660  -0.27786  -0.26966
 Alpha virt. eigenvalues --   -0.06131  -0.03445  -0.00779   0.00367   0.01755
 Alpha virt. eigenvalues --    0.02135   0.02865   0.03350   0.04008   0.04248
 Alpha virt. eigenvalues --    0.05576   0.05981   0.06302   0.06982   0.07848
 Alpha virt. eigenvalues --    0.08292   0.08365   0.08567   0.09570   0.11131
 Alpha virt. eigenvalues --    0.11726   0.12459   0.12783   0.13488   0.13665
 Alpha virt. eigenvalues --    0.14133   0.14304   0.14891   0.15598   0.16503
 Alpha virt. eigenvalues --    0.16886   0.17049   0.17864   0.18038   0.19101
 Alpha virt. eigenvalues --    0.19466   0.19695   0.19883   0.20269   0.20843
 Alpha virt. eigenvalues --    0.21256   0.21647   0.22010   0.22503   0.22626
 Alpha virt. eigenvalues --    0.23351   0.23836   0.24865   0.25728   0.25988
 Alpha virt. eigenvalues --    0.26786   0.27344   0.27406   0.28344   0.28704
 Alpha virt. eigenvalues --    0.30410   0.30695   0.30953   0.31281   0.31930
 Alpha virt. eigenvalues --    0.32877   0.33040   0.34164   0.34782   0.36172
 Alpha virt. eigenvalues --    0.37113   0.38752   0.39001   0.40232   0.40708
 Alpha virt. eigenvalues --    0.44243   0.45685   0.47009   0.49015   0.49166
 Alpha virt. eigenvalues --    0.49930   0.51047   0.51602   0.53121   0.54047
 Alpha virt. eigenvalues --    0.55090   0.55974   0.56053   0.58197   0.58581
 Alpha virt. eigenvalues --    0.59665   0.60919   0.61949   0.62730   0.63280
 Alpha virt. eigenvalues --    0.64994   0.65364   0.66348   0.66827   0.68019
 Alpha virt. eigenvalues --    0.68863   0.69690   0.70083   0.71953   0.73273
 Alpha virt. eigenvalues --    0.73521   0.75000   0.77165   0.79132   0.81303
 Alpha virt. eigenvalues --    0.81934   0.83847   0.85093   0.87214   0.87773
 Alpha virt. eigenvalues --    0.89218   0.90801   0.92483   0.94715   0.95607
 Alpha virt. eigenvalues --    0.97407   0.98507   0.99302   1.00456   1.03810
 Alpha virt. eigenvalues --    1.04036   1.05863   1.06601   1.07949   1.08637
 Alpha virt. eigenvalues --    1.09745   1.09949   1.12335   1.15314   1.17654
 Alpha virt. eigenvalues --    1.20023   1.23328   1.24021   1.26268   1.26469
 Alpha virt. eigenvalues --    1.28044   1.29073   1.32113   1.34815   1.38131
 Alpha virt. eigenvalues --    1.41775   1.45967   1.48531   1.49400   1.49490
 Alpha virt. eigenvalues --    1.50441   1.50781   1.52782   1.53871   1.55084
 Alpha virt. eigenvalues --    1.55746   1.57217   1.57589   1.60300   1.61409
 Alpha virt. eigenvalues --    1.62084   1.62715   1.66118   1.66864   1.67395
 Alpha virt. eigenvalues --    1.70543   1.71252   1.71513   1.73337   1.74541
 Alpha virt. eigenvalues --    1.76474   1.77300   1.82029   1.85566   1.86859
 Alpha virt. eigenvalues --    1.89423   1.90386   1.90615   1.91041   1.94484
 Alpha virt. eigenvalues --    1.95894   1.96849   1.98333   1.99119   2.01675
 Alpha virt. eigenvalues --    2.03184   2.06796   2.07461   2.09625   2.11083
 Alpha virt. eigenvalues --    2.14842   2.18959   2.22555   2.23384   2.25163
 Alpha virt. eigenvalues --    2.26808   2.31818   2.37715   2.39396   2.40452
 Alpha virt. eigenvalues --    2.44457   2.46525   2.49179   2.54003   2.55578
 Alpha virt. eigenvalues --    2.56537   2.59025   2.61198   2.62399   2.63360
 Alpha virt. eigenvalues --    2.63656   2.64603   2.66587   2.67157   2.69423
 Alpha virt. eigenvalues --    2.70980   2.71292   2.73794   2.74809   2.76521
 Alpha virt. eigenvalues --    2.77262   2.79081   2.82095   2.83165   2.83283
 Alpha virt. eigenvalues --    2.87427   2.90850   2.92307   2.93719   2.94359
 Alpha virt. eigenvalues --    3.03112   3.06101   3.08703   3.09934   3.10384
 Alpha virt. eigenvalues --    3.14038   3.18783   3.20454   3.22092   3.28832
 Alpha virt. eigenvalues --    3.29868   3.30041   3.34878   3.35516   3.38842
 Alpha virt. eigenvalues --    3.48587   3.56677   3.58783   3.60092   3.67208
 Alpha virt. eigenvalues --    3.74276   3.82629   3.85271   3.85831   3.86480
 Alpha virt. eigenvalues --    3.98274   4.04341   4.07957   4.11247   4.14207
 Alpha virt. eigenvalues --    4.16910   4.26231   4.31672   4.83124   4.97481
 Alpha virt. eigenvalues --    5.05671   5.11354   5.23206   5.33703   5.40050
 Alpha virt. eigenvalues --    5.62347   5.68297   5.85120  23.56524  23.79638
 Alpha virt. eigenvalues --   23.88827  23.89981  23.94921  24.02800  24.03966
 Alpha virt. eigenvalues --   24.08425  24.16968  49.90996  49.91798  50.03055
          Condensed to atoms (all electrons):
               1          2          3          4          5          6
     1  C   11.366349  -3.949623  -0.214275  -0.371305  -0.602572  -1.200805
     2  C   -3.949623  12.132901   0.393823  -1.931578  -0.112861   0.151575
     3  C   -0.214275   0.393823  19.412122  -2.383648   1.169161  -0.714835
     4  C   -0.371305  -1.931578  -2.383648  12.467834  -2.935664   0.693493
     5  C   -0.602572  -0.112861   1.169161  -2.935664   9.128888   0.130263
     6  C   -1.200805   0.151575  -0.714835   0.693493   0.130263   7.273063
     7  H    0.399292  -0.027584  -0.004279   0.000692  -0.021849  -0.019432
     8  H   -0.004950  -0.008245  -0.169548   0.411969  -0.084921  -0.007519
     9  H   -0.011000   0.369266  -0.133851  -0.016673  -0.005050  -0.005055
    10  C    0.301295  -0.770667 -10.918458   1.204079  -1.029669  -0.282291
    11  O    0.075731   0.003460   0.082956  -0.080957   0.016780  -0.009474
    12  O    0.179377   0.115533  -0.731189  -0.191219  -0.004352  -0.013275
    13  C    0.109721   0.084071  -1.297712  -0.092868  -0.044689  -0.020960
    14  H   -0.002042   0.004551   0.035454  -0.005357  -0.001582   0.000369
    15  H   -0.001923   0.004445   0.035921  -0.005325  -0.001671   0.000356
    16  C   -0.013422  -0.071510  -0.094951   0.070338  -0.010212   0.001745
    17  H   -0.000207  -0.001909   0.006053   0.000327   0.000037  -0.000010
    18  H   -0.000387   0.001032   0.000296  -0.000773  -0.000249   0.000119
    19  H   -0.000455   0.000944   0.000503  -0.000746  -0.000252   0.000105
    20  H   -0.033560   0.009170   0.011206  -0.008283   0.404226  -0.047215
    21  O   -0.249788  -0.014060  -0.005624  -0.028661  -0.170744   0.533403
    22  H    0.041983  -0.010426   0.002840  -0.008737  -0.043821   0.020940
               7          8          9         10         11         12
     1  C    0.399292  -0.004950  -0.011000   0.301295   0.075731   0.179377
     2  C   -0.027584  -0.008245   0.369266  -0.770667   0.003460   0.115533
     3  C   -0.004279  -0.169548  -0.133851 -10.918458   0.082956  -0.731189
     4  C    0.000692   0.411969  -0.016673   1.204079  -0.080957  -0.191219
     5  C   -0.021849  -0.084921  -0.005050  -1.029669   0.016780  -0.004352
     6  C   -0.019432  -0.007519  -0.005055  -0.282291  -0.009474  -0.013275
     7  H    0.518579   0.000058  -0.007175   0.026794  -0.000028   0.000197
     8  H    0.000058   0.501582  -0.000139   0.206390   0.002165   0.002208
     9  H   -0.007175  -0.000139   0.499201   0.141124  -0.000772   0.008983
    10  C    0.026794   0.206390   0.141124  16.569553   0.293482   0.238614
    11  O   -0.000028   0.002165  -0.000772   0.293482   8.174250  -0.188587
    12  O    0.000197   0.002208   0.008983   0.238614  -0.188587   8.492677
    13  C    0.000630   0.006717   0.005626   0.537784  -0.132040   0.396434
    14  H    0.000000  -0.000006  -0.000005  -0.022958  -0.008510  -0.032393
    15  H    0.000000  -0.000008  -0.000006  -0.021805  -0.008589  -0.032607
    16  C    0.000043  -0.000009   0.005253   0.206055   0.046649  -0.165367
    17  H    0.000000   0.000000  -0.000005   0.011701   0.000262   0.013524
    18  H    0.000000   0.000000   0.000008  -0.010766  -0.000550  -0.003016
    19  H    0.000000   0.000000   0.000013  -0.011243  -0.000544  -0.003032
    20  H   -0.000146  -0.006699   0.000040   0.022842  -0.000034   0.000068
    21  O   -0.004613  -0.000346  -0.000386  -0.005489   0.000003   0.000008
    22  H    0.000305   0.000011   0.000028   0.001142  -0.000002  -0.000002
              13         14         15         16         17         18
     1  C    0.109721  -0.002042  -0.001923  -0.013422  -0.000207  -0.000387
     2  C    0.084071   0.004551   0.004445  -0.071510  -0.001909   0.001032
     3  C   -1.297712   0.035454   0.035921  -0.094951   0.006053   0.000296
     4  C   -0.092868  -0.005357  -0.005325   0.070338   0.000327  -0.000773
     5  C   -0.044689  -0.001582  -0.001671  -0.010212   0.000037  -0.000249
     6  C   -0.020960   0.000369   0.000356   0.001745  -0.000010   0.000119
     7  H    0.000630   0.000000   0.000000   0.000043   0.000000   0.000000
     8  H    0.006717  -0.000006  -0.000008  -0.000009   0.000000   0.000000
     9  H    0.005626  -0.000005  -0.000006   0.005253  -0.000005   0.000008
    10  C    0.537784  -0.022958  -0.021805   0.206055   0.011701  -0.010766
    11  O   -0.132040  -0.008510  -0.008589   0.046649   0.000262  -0.000550
    12  O    0.396434  -0.032393  -0.032607  -0.165367   0.013524  -0.003016
    13  C    5.649005   0.420815   0.419806   0.027231  -0.077513  -0.018203
    14  H    0.420815   0.538821  -0.036940  -0.045056  -0.003710  -0.007996
    15  H    0.419806  -0.036940   0.539863  -0.045730  -0.003699   0.007826
    16  C    0.027231  -0.045056  -0.045730   5.379309   0.433700   0.407936
    17  H   -0.077513  -0.003710  -0.003699   0.433700   0.526444  -0.025648
    18  H   -0.018203  -0.007996   0.007826   0.407936  -0.025648   0.537903
    19  H   -0.018008   0.007820  -0.008038   0.408067  -0.025772  -0.029510
    20  H    0.000207   0.000000   0.000000   0.000019   0.000000   0.000000
    21  O    0.000000   0.000000   0.000000  -0.000020   0.000000   0.000000
    22  H    0.000001   0.000000   0.000000   0.000001   0.000000   0.000000
              19         20         21         22
     1  C   -0.000455  -0.033560  -0.249788   0.041983
     2  C    0.000944   0.009170  -0.014060  -0.010426
     3  C    0.000503   0.011206  -0.005624   0.002840
     4  C   -0.000746  -0.008283  -0.028661  -0.008737
     5  C   -0.000252   0.404226  -0.170744  -0.043821
     6  C    0.000105  -0.047215   0.533403   0.020940
     7  H    0.000000  -0.000146  -0.004613   0.000305
     8  H    0.000000  -0.006699  -0.000346   0.000011
     9  H    0.000013   0.000040  -0.000386   0.000028
    10  C   -0.011243   0.022842  -0.005489   0.001142
    11  O   -0.000544  -0.000034   0.000003  -0.000002
    12  O   -0.003032   0.000068   0.000008  -0.000002
    13  C   -0.018008   0.000207   0.000000   0.000001
    14  H    0.007820   0.000000   0.000000   0.000000
    15  H   -0.008038   0.000000   0.000000   0.000000
    16  C    0.408067   0.000019  -0.000020   0.000001
    17  H   -0.025772   0.000000   0.000000   0.000000
    18  H   -0.029510   0.000000   0.000000   0.000000
    19  H    0.538859   0.000000   0.000000   0.000000
    20  H    0.000000   0.515851  -0.005364   0.000771
    21  O    0.000000  -0.005364   8.022413   0.268972
    22  H    0.000000   0.000771   0.268972   0.455848
 Mulliken charges:
               1
     1  C    0.182569
     2  C   -0.372305
     3  C    1.518036
     4  C   -0.786936
     5  C    0.220802
     6  C   -0.484561
     7  H    0.138514
     8  H    0.151290
     9  H    0.150575
    10  C   -0.687509
    11  O   -0.265650
    12  O   -0.082585
    13  C    0.043945
    14  H    0.158724
    15  H    0.158125
    16  C   -0.540068
    17  H    0.146425
    18  H    0.141980
    19  H    0.141288
    20  H    0.136898
    21  O   -0.339704
    22  H    0.270145
 Sum of Mulliken charges =   0.00000
 Mulliken charges with hydrogens summed into heavy atoms:
               1
     1  C    0.321083
     2  C   -0.221730
     3  C    1.518036
     4  C   -0.635646
     5  C    0.357700
     6  C   -0.484561
    10  C   -0.687509
    11  O   -0.265650
    12  O   -0.082585
    13  C    0.360795
    16  C   -0.110375
    21  O   -0.069558
 Electronic spatial extent (au):  <R**2>=           2887.5804
 Charge=              0.0000 electrons
 Dipole moment (field-independent basis, Debye):
    X=              0.1433    Y=             -1.4727    Z=              1.4909  Tot=              2.1006
 Quadrupole moment (field-independent basis, Debye-Ang):
   XX=            -63.6577   YY=            -72.4008   ZZ=            -70.9554
   XY=              6.3615   XZ=              7.8313   YZ=             -1.0381
 Traceless Quadrupole moment (field-independent basis, Debye-Ang):
   XX=              5.3469   YY=             -3.3962   ZZ=             -1.9507
   XY=              6.3615   XZ=              7.8313   YZ=             -1.0381
 Octapole moment (field-independent basis, Debye-Ang**2):
  XXX=            -36.7795  YYY=            -11.0965  ZZZ=              2.1012  XYY=             18.1842
  XXY=              3.8477  XXZ=             39.3626  XZZ=             -1.4444  YZZ=             -0.2225
  YYZ=              0.4790  XYZ=             -5.0007
 Hexadecapole moment (field-independent basis, Debye-Ang**3):
 XXXX=          -2956.5429 YYYY=           -563.9253 ZZZZ=            -91.1734 XXXY=             30.5117
 XXXZ=            196.0730 YYYX=             14.2158 YYYZ=             -0.7614 ZZZX=             10.1294
 ZZZY=             -1.2769 XXYY=           -633.9368 XXZZ=           -509.8868 YYZZ=           -113.5094
 XXYZ=            -25.2735 YYXZ=              4.0309 ZZXY=            -10.8825
 N-N= 6.587214260884D+02 E-N=-2.660329623553D+03  KE= 5.725185152570D+02
 There are a total of      181882 grid points.
 ElSum from          density=       88.0004231008
 ElSum from atomic densities=       88.0011395157

 Hirshfeld populations at iteration   1 (CX, CA, CB, DipXYZ):
               1          2          3          4          5          6
     1  C    0.000000   3.024986   3.024986   0.006473  -0.056477  -0.010213
     2  C    0.000000   3.016427   3.016427  -0.034325  -0.049640  -0.003580
     3  C    0.000000   3.007422   3.007422  -0.062049   0.019327  -0.002644
     4  C    0.000000   3.013440   3.013440  -0.011803   0.066019  -0.004211
     5  C    0.000000   3.025142   3.025142   0.035591   0.051548  -0.008080
     6  C    0.000000   2.960853   2.960853   0.145980  -0.034036  -0.011518
     7  H    0.000001   0.471517   0.471517   0.031699  -0.161155  -0.003123
     8  H    0.000002   0.471442   0.471442  -0.022336   0.160258   0.000144
     9  H    0.000001   0.474422   0.474422  -0.085686  -0.133814  -0.000856
    10  C    0.000000   2.889887   2.889887  -0.030460  -0.059882  -0.001339
    11  O    0.000003   4.141403   4.141403  -0.002750  -0.119195  -0.001079
    12  O    0.000000   4.063349   4.063349  -0.060212   0.102001   0.000505
    13  C    0.000000   2.989618   2.989618   0.052943  -0.046572  -0.000901
    14  H    0.000001   0.479710   0.479710  -0.055640   0.066735  -0.128739
    15  H    0.000001   0.479850   0.479850  -0.054051   0.065382   0.129804
    16  C    0.000000   3.050536   3.050536  -0.013747   0.015380  -0.000102
    17  H    0.000000   0.477635   0.477635  -0.148149   0.044818   0.001106
    18  H    0.000000   0.480641   0.480641   0.025239  -0.079497  -0.126712
    19  H    0.000000   0.480775   0.480775   0.026791  -0.080728   0.125286
    20  H    0.000002   0.472927   0.472927   0.105610   0.129110  -0.001432
    21  O    0.000003   4.115775   4.115775  -0.115876   0.051956   0.143377
    22  H    0.000001   0.412455   0.412455   0.086938   0.009055   0.199740
       Tot   0.000016  44.000212  44.000212  -0.179821  -0.039407   0.295432

 Dip from Atomic Chgs              0.235213  -0.540392   0.291106
         Total Dipole              0.055392  -0.579799   0.586539

 Hirshfeld charges, spin densities, dipoles, and CM5 charges using IRadAn=      4:
              Q-H        S-H        Dx         Dy         Dz        Q-CM5   
     1  C   -0.049971   0.000000   0.006473  -0.056477  -0.010213  -0.099146
     2  C   -0.032854   0.000000  -0.034325  -0.049640  -0.003580  -0.085703
     3  C   -0.014845   0.000000  -0.062049   0.019327  -0.002644  -0.018991
     4  C   -0.026880   0.000000  -0.011803   0.066019  -0.004211  -0.080331
     5  C   -0.050285   0.000000   0.035591   0.051548  -0.008080  -0.103170
     6  C    0.078294   0.000000   0.145980  -0.034036  -0.011518   0.086872
     7  H    0.056967   0.000000   0.031699  -0.161155  -0.003123   0.113073
     8  H    0.057116   0.000000  -0.022336   0.160258   0.000144   0.117635
     9  H    0.051157   0.000000  -0.085686  -0.133814  -0.000856   0.114778
    10  C    0.220225   0.000000  -0.030460  -0.059882  -0.001339   0.275985
    11  O   -0.282807   0.000000  -0.002750  -0.119195  -0.001079  -0.333217
    12  O   -0.126698   0.000000  -0.060212   0.102001   0.000505  -0.210699
    13  C    0.020764   0.000000   0.052943  -0.046572  -0.000901  -0.067237
    14  H    0.040580   0.000000  -0.055640   0.066735  -0.128739   0.111763
    15  H    0.040300   0.000000  -0.054051   0.065382   0.129804   0.111485
    16  C   -0.101071   0.000000  -0.013747   0.015380  -0.000102  -0.256818
    17  H    0.044730   0.000000  -0.148149   0.044818   0.001106   0.098911
    18  H    0.038717   0.000000   0.025239  -0.079497  -0.126712   0.094938
    19  H    0.038450   0.000000   0.026791  -0.080728   0.125286   0.094672
    20  H    0.054145   0.000000   0.105610   0.129110  -0.001432   0.114304
    21  O   -0.231550   0.000000  -0.115876   0.051956   0.143377  -0.428353
    22  H    0.175091   0.000000   0.086938   0.009055   0.199740   0.348823
       Tot  -0.000423   0.000000  -0.179821  -0.039407   0.295432  -0.000423
 Hirshfeld charges with hydrogens summed into heavy atoms:
              Q-H       Q-CM5   
     1  C    0.006995   0.013927
     2  C    0.018303   0.029076
     3  C   -0.014845  -0.018991
     4  C    0.030236   0.037305
     5  C    0.003860   0.011134
     6  C    0.078294   0.086872
    10  C    0.220225   0.275985
    11  O   -0.282807  -0.333217
    12  O   -0.126698  -0.210699
    13  C    0.101644   0.156011
    16  C    0.020827   0.031704
    21  O   -0.056459  -0.079531
 
 EQQ= 0.000000000000E+00 EQD= 0.000000000000E+00 EDD= 0.590720537298E-02
 EQQ+QD+DD= 0.590720537298E-02
 
          MBS Condensed to atoms (all electrons):
               1          2          3          4          5          6
     1  C    4.849090   0.502361  -0.029901  -0.010400  -0.037918   0.495742
     2  C    0.502361   4.821214   0.496888  -0.032303  -0.010374  -0.027396
     3  C   -0.029901   0.496888   4.824200   0.498785  -0.030119  -0.011874
     4  C   -0.010400  -0.032303   0.498785   4.812566   0.504063  -0.027203
     5  C   -0.037918  -0.010374  -0.030119   0.504063   4.851930   0.495199
     6  C    0.495742  -0.027396  -0.011874  -0.027203   0.495199   4.693039
     7  H    0.384105  -0.023341   0.001422   0.000055   0.001404  -0.024796
     8  H    0.000020   0.001540  -0.026069   0.389877  -0.024336   0.001382
     9  H   -0.024115   0.389735  -0.025599   0.001510   0.000025   0.001379
    10  C    0.000766  -0.023791   0.375837  -0.024340   0.000806   0.000016
    11  O   -0.000001   0.000199  -0.018456  -0.000923   0.000001   0.000000
    12  O    0.000012  -0.002705  -0.029898   0.000258  -0.000001   0.000000
    13  C    0.000000   0.000055   0.001491  -0.000014   0.000000   0.000000
    14  H    0.000000  -0.000003   0.000004   0.000001   0.000000   0.000000
    15  H    0.000000  -0.000003   0.000004   0.000001   0.000000   0.000000
    16  C    0.000000  -0.000001  -0.000007   0.000000   0.000000   0.000000
    17  H    0.000000   0.000000   0.000000   0.000000   0.000000   0.000000
    18  H    0.000000  -0.000001  -0.000002   0.000000   0.000000   0.000000
    19  H    0.000000  -0.000001  -0.000002   0.000000   0.000000   0.000000
    20  H    0.001459   0.000060   0.001493  -0.024118   0.390108  -0.025744
    21  O   -0.022756   0.000332   0.000005   0.000335  -0.022581   0.287808
    22  H    0.000602  -0.000052   0.000005  -0.000041  -0.000386  -0.032113
               7          8          9         10         11         12
     1  C    0.384105   0.000020  -0.024115   0.000766  -0.000001   0.000012
     2  C   -0.023341   0.001540   0.389735  -0.023791   0.000199  -0.002705
     3  C    0.001422  -0.026069  -0.025599   0.375837  -0.018456  -0.029898
     4  C    0.000055   0.389877   0.001510  -0.024340  -0.000923   0.000258
     5  C    0.001404  -0.024336   0.000025   0.000806   0.000001  -0.000001
     6  C   -0.024796   0.001382   0.001379   0.000016   0.000000   0.000000
     7  H    0.545063   0.000002  -0.003977  -0.000014   0.000000   0.000000
     8  H    0.000002   0.523753  -0.000046  -0.003207   0.001560   0.000025
     9  H   -0.003977  -0.000046   0.521962  -0.004163   0.000019   0.003192
    10  C   -0.000014  -0.003207  -0.004163   4.522337   0.450032   0.291682
    11  O    0.000000   0.001560   0.000019   0.450032   8.067463  -0.028973
    12  O    0.000000   0.000025   0.003192   0.291682  -0.028973   7.938389
    13  C    0.000000  -0.000001  -0.000098  -0.037948  -0.006087   0.258928
    14  H    0.000000   0.000000   0.000005  -0.005248   0.001548  -0.018156
    15  H    0.000000   0.000000   0.000005  -0.005248   0.001550  -0.018166
    16  C    0.000000   0.000000   0.000001   0.001714   0.000082  -0.019167
    17  H    0.000000   0.000000   0.000000  -0.000044   0.000004   0.000731
    18  H    0.000000   0.000000   0.000006  -0.000003  -0.000003  -0.000416
    19  H    0.000000   0.000000   0.000006  -0.000003  -0.000003  -0.000416
    20  H   -0.000046  -0.004005   0.000002  -0.000015   0.000000   0.000000
    21  O   -0.000572  -0.000005  -0.000005   0.000000   0.000000   0.000000
    22  H    0.000121   0.000001   0.000001   0.000000   0.000000   0.000000
              13         14         15         16         17         18
     1  C    0.000000   0.000000   0.000000   0.000000   0.000000   0.000000
     2  C    0.000055  -0.000003  -0.000003  -0.000001   0.000000  -0.000001
     3  C    0.001491   0.000004   0.000004  -0.000007   0.000000  -0.000002
     4  C   -0.000014   0.000001   0.000001   0.000000   0.000000   0.000000
     5  C    0.000000   0.000000   0.000000   0.000000   0.000000   0.000000
     6  C    0.000000   0.000000   0.000000   0.000000   0.000000   0.000000
     7  H    0.000000   0.000000   0.000000   0.000000   0.000000   0.000000
     8  H   -0.000001   0.000000   0.000000   0.000000   0.000000   0.000000
     9  H   -0.000098   0.000005   0.000005   0.000001   0.000000   0.000006
    10  C   -0.037948  -0.005248  -0.005248   0.001714  -0.000044  -0.000003
    11  O   -0.006087   0.001548   0.001550   0.000082   0.000004  -0.000003
    12  O    0.258928  -0.018156  -0.018166  -0.019167   0.000731  -0.000416
    13  C    4.708644   0.378320   0.378274   0.362022  -0.019261  -0.022555
    14  H    0.378320   0.578516  -0.027366  -0.024456  -0.001506  -0.003024
    15  H    0.378274  -0.027366   0.579015  -0.024471  -0.001507   0.002281
    16  C    0.362022  -0.024456  -0.024471   4.835753   0.381339   0.381525
    17  H   -0.019261  -0.001506  -0.001507   0.381339   0.582590  -0.021728
    18  H   -0.022555  -0.003024   0.002281   0.381525  -0.021728   0.586633
    19  H   -0.022568   0.002281  -0.003023   0.381482  -0.021739  -0.023389
    20  H    0.000000   0.000000   0.000000   0.000000   0.000000   0.000000
    21  O    0.000000   0.000000   0.000000   0.000000   0.000000   0.000000
    22  H    0.000000   0.000000   0.000000   0.000000   0.000000   0.000000
              19         20         21         22
     1  C    0.000000   0.001459  -0.022756   0.000602
     2  C   -0.000001   0.000060   0.000332  -0.000052
     3  C   -0.000002   0.001493   0.000005   0.000005
     4  C    0.000000  -0.024118   0.000335  -0.000041
     5  C    0.000000   0.390108  -0.022581  -0.000386
     6  C    0.000000  -0.025744   0.287808  -0.032113
     7  H    0.000000  -0.000046  -0.000572   0.000121
     8  H    0.000000  -0.004005  -0.000005   0.000001
     9  H    0.000006   0.000002  -0.000005   0.000001
    10  C   -0.000003  -0.000015   0.000000   0.000000
    11  O   -0.000003   0.000000   0.000000   0.000000
    12  O   -0.000416   0.000000   0.000000   0.000000
    13  C   -0.022568   0.000000   0.000000   0.000000
    14  H    0.002281   0.000000   0.000000   0.000000
    15  H   -0.003023   0.000000   0.000000   0.000000
    16  C    0.381482   0.000000   0.000000   0.000000
    17  H   -0.021739   0.000000   0.000000   0.000000
    18  H   -0.023389   0.000000   0.000000   0.000000
    19  H    0.587146   0.000000   0.000000   0.000000
    20  H    0.000000   0.534762  -0.000685   0.000251
    21  O    0.000000  -0.000685   8.009911   0.265814
    22  H    0.000000   0.000251   0.265814   0.416094
 MBS Mulliken charges:
               1
     1  C   -0.109067
     2  C   -0.092415
     3  C   -0.028209
     4  C   -0.088109
     5  C   -0.117822
     6  C    0.174561
     7  H    0.120574
     8  H    0.139510
     9  H    0.140155
    10  C    0.460836
    11  O   -0.468012
    12  O   -0.375320
    13  C    0.020798
    14  H    0.119083
    15  H    0.118654
    16  C   -0.275817
    17  H    0.101121
    18  H    0.100674
    19  H    0.100227
    20  H    0.126478
    21  O   -0.517601
    22  H    0.349702
 Sum of MBS Mulliken charges =   0.00000
 MBS Mulliken charges with hydrogens summed into heavy atoms:
               1
     1  C    0.011507
     2  C    0.047740
     3  C   -0.028209
     4  C    0.051401
     5  C    0.008656
     6  C    0.174561
    10  C    0.460836
    11  O   -0.468012
    12  O   -0.375320
    13  C    0.258536
    16  C    0.026206
    21  O   -0.167900
 Breneman (CHELPG) radii used.
 Generate Potential Derived Charges using the Breneman model, NDens= 1.
 Grid spacing= 0.300 Box extension= 2.800
 NStep X,Y,Z=   54     36     26   Total possible points=       50544
 Number of Points to Fit=   14765

 **********************************************************************

            Electrostatic Properties Using The SCF Density

 **********************************************************************

       Atomic Center    1 is at   2.009234 -1.323033 -0.030122
       Atomic Center    2 is at   0.655256 -0.986740 -0.019093
       Atomic Center    3 is at   0.269463  0.353521 -0.009793
       Atomic Center    4 is at   1.237871  1.358211 -0.010319
       Atomic Center    5 is at   2.591509  1.021921 -0.020866
       Atomic Center    6 is at   2.977246 -0.318791 -0.031164
       Atomic Center    7 is at   2.313185 -2.379771 -0.037903
       Atomic Center    8 is at   0.942060  2.386480 -0.002633
       Atomic Center    9 is at  -0.087283 -1.757151 -0.017771
       Atomic Center   10 is at  -1.225058  0.724839  0.001493
       Atomic Center   11 is at  -1.766654  1.829445  0.010561
       Atomic Center   12 is at  -2.027425 -0.369518  0.000979
       Atomic Center   13 is at  -3.404443  0.015979  0.011608
       Atomic Center   14 is at  -3.617418  0.602242 -0.857781
       Atomic Center   15 is at  -3.606391  0.593460  0.889465
       Atomic Center   16 is at  -4.290206 -1.243792  0.010866
       Atomic Center   17 is at  -5.320561 -0.955344  0.018956
       Atomic Center   18 is at  -4.088355 -1.821204 -0.867058
       Atomic Center   19 is at  -4.077134 -1.830123  0.880186
       Atomic Center   20 is at   3.334125  1.792260 -0.021058
       Atomic Center   21 is at   4.365043 -0.663443 -0.042789
       Atomic Center   22 is at   4.714823 -0.615411  0.849929
   14765 points will be used for fitting atomic charges
 Fitting point charges to electrostatic potential
 Charges from ESP fit, RMS=   0.00366 RRMS=   0.26974:
 ESP charges:
               1
     1  C   -0.236443
     2  C   -0.022737
     3  C   -0.166997
     4  C    0.000722
     5  C   -0.262221
     6  C    0.443302
     7  H    0.128795
     8  H    0.090615
     9  H    0.098114
    10  C    0.718930
    11  O   -0.572107
    12  O   -0.461710
    13  C    0.414012
    14  H    0.001269
    15  H   -0.007369
    16  C   -0.294156
    17  H    0.059366
    18  H    0.081164
    19  H    0.078735
    20  H    0.141040
    21  O   -0.596418
    22  H    0.364096
 Sum of ESP charges =   0.00000
 ESP charges with hydrogens summed into heavy atoms:
               1
     1  C   -0.107648
     2  C    0.075376
     3  C   -0.166997
     4  C    0.091336
     5  C   -0.121181
     6  C    0.443302
    10  C    0.718930
    11  O   -0.572107
    12  O   -0.461710
    13  C    0.407912
    16  C   -0.074892
    21  O   -0.232321
 Charge=   0.00000 Dipole=     0.1743    -1.4650     1.5110 Tot=     2.1118
 -----------------------------------------------------------------

              Electrostatic Properties (Atomic Units)

 -----------------------------------------------------------------
    Center     Electric         -------- Electric Field --------
               Potential          X             Y             Z
 -----------------------------------------------------------------
    1 Atom    -14.755336
    2 Atom    -14.753921
    3 Atom    -14.740826
    4 Atom    -14.753562
    5 Atom    -14.758250
    6 Atom    -14.693813
    7 Atom     -1.087001
    8 Atom     -1.093857
    9 Atom     -1.093609
   10 Atom    -14.635867
   11 Atom    -22.383707
   12 Atom    -22.323518
   13 Atom    -14.722817
   14 Atom     -1.119733
   15 Atom     -1.119679
   16 Atom    -14.783084
   17 Atom     -1.112683
   18 Atom     -1.120653
   19 Atom     -1.120581
   20 Atom     -1.089754
   21 Atom    -22.339229
   22 Atom     -0.972714
 -----------------------------------------------------------------
 ******************************Gaussian NBO Version 3.1******************************
             N A T U R A L   A T O M I C   O R B I T A L   A N D
          N A T U R A L   B O N D   O R B I T A L   A N A L Y S I S
 ******************************Gaussian NBO Version 3.1******************************
       /RESON  / : Allow strongly delocalized NBO set

 Analyzing the SCF density

 Job title: Title Card Required                                             

 Storage needed:    316726 in NPA ( 536868272 available)


 NATURAL POPULATIONS:  Natural atomic orbital occupancies 
                                                          
   NAO  Atom  No  lang   Type(AO)    Occupancy      Energy
 ----------------------------------------------------------
     1    C    1  S      Cor( 1S)     1.99902     -10.04999
     2    C    1  S      Val( 2S)     0.96145      -0.18450
     3    C    1  S      Ryd( 3S)     0.00180       0.73998
     4    C    1  S      Ryd( 4S)     0.00013       1.57715
     5    C    1  S      Ryd( 5S)     0.00001      22.25018
     6    C    1  px     Val( 2p)     1.07276      -0.06614
     7    C    1  px     Ryd( 4p)     0.00533       0.83780
     8    C    1  px     Ryd( 3p)     0.00026       0.40161
     9    C    1  px     Ryd( 5p)     0.00016       3.14443
    10    C    1  py     Val( 2p)     1.17644      -0.08540
    11    C    1  py     Ryd( 4p)     0.00554       1.04394
    12    C    1  py     Ryd( 3p)     0.00027       0.34377
    13    C    1  py     Ryd( 5p)     0.00008       3.10482
    14    C    1  pz     Val( 2p)     1.01346      -0.12760
    15    C    1  pz     Ryd( 4p)     0.00112       0.50927
    16    C    1  pz     Ryd( 3p)     0.00032       0.28434
    17    C    1  pz     Ryd( 5p)     0.00002       2.69392
    18    C    1  dxy    Ryd( 3d)     0.00079       2.55450
    19    C    1  dxz    Ryd( 3d)     0.00046       1.65340
    20    C    1  dyz    Ryd( 3d)     0.00053       1.60348
    21    C    1  dx2y2  Ryd( 3d)     0.00063       2.49077
    22    C    1  dz2    Ryd( 3d)     0.00043       2.04509

    23    C    2  S      Cor( 1S)     1.99909     -10.04776
    24    C    2  S      Val( 2S)     0.94438      -0.17146
    25    C    2  S      Ryd( 3S)     0.00116       0.90243
    26    C    2  S      Ryd( 4S)     0.00011       1.00359
    27    C    2  S      Ryd( 5S)     0.00001      22.75083
    28    C    2  px     Val( 2p)     1.12003      -0.06815
    29    C    2  px     Ryd( 4p)     0.00445       1.05266
    30    C    2  px     Ryd( 3p)     0.00044       0.59851
    31    C    2  px     Ryd( 5p)     0.00012       3.19759
    32    C    2  py     Val( 2p)     1.12452      -0.06548
    33    C    2  py     Ryd( 4p)     0.00533       0.90133
    34    C    2  py     Ryd( 3p)     0.00026       0.36512
    35    C    2  py     Ryd( 5p)     0.00014       3.21318
    36    C    2  pz     Val( 2p)     0.95462      -0.12435
    37    C    2  pz     Ryd( 4p)     0.00095       0.53347
    38    C    2  pz     Ryd( 3p)     0.00034       0.33532
    39    C    2  pz     Ryd( 5p)     0.00001       2.67899
    40    C    2  dxy    Ryd( 3d)     0.00078       2.50988
    41    C    2  dxz    Ryd( 3d)     0.00050       1.62705
    42    C    2  dyz    Ryd( 3d)     0.00044       1.63819
    43    C    2  dx2y2  Ryd( 3d)     0.00064       2.63399
    44    C    2  dz2    Ryd( 3d)     0.00042       2.05795

    45    C    3  S      Cor( 1S)     1.99889     -10.06721
    46    C    3  S      Val( 2S)     0.91347      -0.16848
    47    C    3  S      Ryd( 3S)     0.00144       0.79227
    48    C    3  S      Ryd( 4S)     0.00008       1.45772
    49    C    3  S      Ryd( 5S)     0.00001      22.58049
    50    C    3  px     Val( 2p)     1.06310      -0.09063
    51    C    3  px     Ryd( 4p)     0.00598       1.24364
    52    C    3  px     Ryd( 3p)     0.00019       0.71985
    53    C    3  px     Ryd( 5p)     0.00014       3.18856
    54    C    3  py     Val( 2p)     1.10055      -0.08135
    55    C    3  py     Ryd( 4p)     0.00563       1.19684
    56    C    3  py     Ryd( 3p)     0.00022       0.66323
    57    C    3  py     Ryd( 5p)     0.00011       3.17383
    58    C    3  pz     Val( 2p)     1.06108      -0.12926
    59    C    3  pz     Ryd( 4p)     0.00067       0.58157
    60    C    3  pz     Ryd( 3p)     0.00015       0.51320
    61    C    3  pz     Ryd( 5p)     0.00001       2.56120
    62    C    3  dxy    Ryd( 3d)     0.00070       2.59604
    63    C    3  dxz    Ryd( 3d)     0.00035       1.60341
    64    C    3  dyz    Ryd( 3d)     0.00057       1.65081
    65    C    3  dx2y2  Ryd( 3d)     0.00096       2.53100
    66    C    3  dz2    Ryd( 3d)     0.00044       2.08416

    67    C    4  S      Cor( 1S)     1.99910     -10.04851
    68    C    4  S      Val( 2S)     0.94472      -0.17121
    69    C    4  S      Ryd( 3S)     0.00141       0.83265
    70    C    4  S      Ryd( 4S)     0.00011       1.55964
    71    C    4  S      Ryd( 5S)     0.00001      22.22596
    72    C    4  px     Val( 2p)     1.06201      -0.06043
    73    C    4  px     Ryd( 4p)     0.00384       0.87298
    74    C    4  px     Ryd( 3p)     0.00051       0.50919
    75    C    4  px     Ryd( 5p)     0.00020       3.13508
    76    C    4  py     Val( 2p)     1.17784      -0.07024
    77    C    4  py     Ryd( 4p)     0.00628       1.03119
    78    C    4  py     Ryd( 3p)     0.00039       0.32064
    79    C    4  py     Ryd( 5p)     0.00007       3.19788
    80    C    4  pz     Val( 2p)     0.95105      -0.12338
    81    C    4  pz     Ryd( 4p)     0.00089       0.50855
    82    C    4  pz     Ryd( 3p)     0.00038       0.31961
    83    C    4  pz     Ryd( 5p)     0.00001       2.67501
    84    C    4  dxy    Ryd( 3d)     0.00072       2.56830
    85    C    4  dxz    Ryd( 3d)     0.00054       1.65307
    86    C    4  dyz    Ryd( 3d)     0.00039       1.61264
    87    C    4  dx2y2  Ryd( 3d)     0.00070       2.53462
    88    C    4  dz2    Ryd( 3d)     0.00041       2.06014

    89    C    5  S      Cor( 1S)     1.99904     -10.04545
    90    C    5  S      Val( 2S)     0.95654      -0.17887
    91    C    5  S      Ryd( 3S)     0.00162       0.72816
    92    C    5  S      Ryd( 4S)     0.00014       1.68373
    93    C    5  S      Ryd( 5S)     0.00001      22.13228
    94    C    5  px     Val( 2p)     1.12418      -0.06930
    95    C    5  px     Ryd( 4p)     0.00621       0.97347
    96    C    5  px     Ryd( 3p)     0.00037       0.39055
    97    C    5  px     Ryd( 5p)     0.00012       3.11660
    98    C    5  py     Val( 2p)     1.12851      -0.07816
    99    C    5  py     Ryd( 4p)     0.00447       0.91944
   100    C    5  py     Ryd( 3p)     0.00034       0.37154
   101    C    5  py     Ryd( 5p)     0.00013       3.09914
   102    C    5  pz     Val( 2p)     1.01629      -0.12836
   103    C    5  pz     Ryd( 4p)     0.00126       0.49595
   104    C    5  pz     Ryd( 3p)     0.00033       0.28882
   105    C    5  pz     Ryd( 5p)     0.00002       2.69489
   106    C    5  dxy    Ryd( 3d)     0.00072       2.49418
   107    C    5  dxz    Ryd( 3d)     0.00044       1.62720
   108    C    5  dyz    Ryd( 3d)     0.00050       1.63695
   109    C    5  dx2y2  Ryd( 3d)     0.00068       2.59160
   110    C    5  dz2    Ryd( 3d)     0.00043       2.04600

   111    C    6  S      Cor( 1S)     1.99867     -10.12551
   112    C    6  S      Val( 2S)     0.85208      -0.16603
   113    C    6  S      Ryd( 4S)     0.00118       0.83509
   114    C    6  S      Ryd( 3S)     0.00015       0.64158
   115    C    6  S      Ryd( 5S)     0.00002      22.95549
   116    C    6  px     Val( 2p)     0.77624      -0.07186
   117    C    6  px     Ryd( 4p)     0.00678       0.98513
   118    C    6  px     Ryd( 3p)     0.00047       0.43674
   119    C    6  px     Ryd( 5p)     0.00031       2.96134
   120    C    6  py     Val( 2p)     1.06072      -0.07084
   121    C    6  py     Ryd( 4p)     0.00422       1.09230
   122    C    6  py     Ryd( 3p)     0.00092       0.42041
   123    C    6  py     Ryd( 5p)     0.00014       2.91010
   124    C    6  pz     Val( 2p)     0.97754      -0.13521
   125    C    6  pz     Ryd( 4p)     0.00156       0.60406
   126    C    6  pz     Ryd( 3p)     0.00053       0.36434
   127    C    6  pz     Ryd( 5p)     0.00004       2.56023
   128    C    6  dxy    Ryd( 3d)     0.00178       2.54709
   129    C    6  dxz    Ryd( 3d)     0.00160       1.58817
   130    C    6  dyz    Ryd( 3d)     0.00064       1.63319
   131    C    6  dx2y2  Ryd( 3d)     0.00172       2.45984
   132    C    6  dz2    Ryd( 3d)     0.00056       2.03699

   133    H    7  S      Val( 1S)     0.77315       0.02663
   134    H    7  S      Ryd( 2S)     0.00085       0.70471
   135    H    7  S      Ryd( 3S)     0.00018       1.95675
   136    H    7  px     Ryd( 2p)     0.00015       2.04298
   137    H    7  py     Ryd( 2p)     0.00041       2.61716
   138    H    7  pz     Ryd( 2p)     0.00015       1.58450

   139    H    8  S      Val( 1S)     0.77023       0.05508
   140    H    8  S      Ryd( 2S)     0.00086       0.89024
   141    H    8  S      Ryd( 3S)     0.00018       1.80771
   142    H    8  px     Ryd( 2p)     0.00014       2.07911
   143    H    8  py     Ryd( 2p)     0.00041       2.69685
   144    H    8  pz     Ryd( 2p)     0.00016       1.60533

   145    H    9  S      Val( 1S)     0.76902       0.05687
   146    H    9  S      Ryd( 3S)     0.00072       1.51778
   147    H    9  S      Ryd( 2S)     0.00013       1.24039
   148    H    9  px     Ryd( 2p)     0.00029       2.38152
   149    H    9  py     Ryd( 2p)     0.00028       2.39683
   150    H    9  pz     Ryd( 2p)     0.00016       1.60437

   151    C   10  S      Cor( 1S)     1.99940     -10.20143
   152    C   10  S      Val( 2S)     0.78321      -0.16832
   153    C   10  S      Ryd( 3S)     0.00387       0.89228
   154    C   10  S      Ryd( 4S)     0.00015       1.76172
   155    C   10  S      Ryd( 5S)     0.00005      21.84935
   156    C   10  px     Val( 2p)     0.89276      -0.05087
   157    C   10  px     Ryd( 4p)     0.00586       1.40261
   158    C   10  px     Ryd( 3p)     0.00050       0.51795
   159    C   10  px     Ryd( 5p)     0.00015       2.36568
   160    C   10  py     Val( 2p)     0.70748      -0.02298
   161    C   10  py     Ryd( 4p)     0.02066       1.06473
   162    C   10  py     Ryd( 3p)     0.00042       0.42910
   163    C   10  py     Ryd( 5p)     0.00014       2.65484
   164    C   10  pz     Val( 2p)     0.76584      -0.13815
   165    C   10  pz     Ryd( 4p)     0.00056       0.71633
   166    C   10  pz     Ryd( 3p)     0.00065       0.37941
   167    C   10  pz     Ryd( 5p)     0.00014       2.46890
   168    C   10  dxy    Ryd( 3d)     0.00396       2.55709
   169    C   10  dxz    Ryd( 3d)     0.00185       1.52770
   170    C   10  dyz    Ryd( 3d)     0.00448       1.59423
   171    C   10  dx2y2  Ryd( 3d)     0.00396       2.36250
   172    C   10  dz2    Ryd( 3d)     0.00068       1.97056

   173    O   11  S      Cor( 1S)     1.99977     -18.85621
   174    O   11  S      Val( 2S)     1.71354      -0.90191
   175    O   11  S      Ryd( 3S)     0.00085       1.41446
   176    O   11  S      Ryd( 4S)     0.00009       1.45630
   177    O   11  S      Ryd( 5S)     0.00000      49.75350
   178    O   11  px     Val( 2p)     1.78029      -0.27555
   179    O   11  px     Ryd( 3p)     0.00195       0.72675
   180    O   11  px     Ryd( 4p)     0.00024       1.03632
   181    O   11  px     Ryd( 5p)     0.00003       5.14987
   182    O   11  py     Val( 2p)     1.63253      -0.29970
   183    O   11  py     Ryd( 3p)     0.00072       0.60284
   184    O   11  py     Ryd( 4p)     0.00022       0.99571
   185    O   11  py     Ryd( 5p)     0.00011       5.24311
   186    O   11  pz     Val( 2p)     1.47153      -0.25922
   187    O   11  pz     Ryd( 3p)     0.00129       0.56430
   188    O   11  pz     Ryd( 4p)     0.00010       0.90544
   189    O   11  pz     Ryd( 5p)     0.00002       4.95210
   190    O   11  dxy    Ryd( 3d)     0.00154       3.45108
   191    O   11  dxz    Ryd( 3d)     0.00031       2.88825
   192    O   11  dyz    Ryd( 3d)     0.00134       3.04258
   193    O   11  dx2y2  Ryd( 3d)     0.00154       3.32754
   194    O   11  dz2    Ryd( 3d)     0.00047       3.11885

   195    O   12  S      Cor( 1S)     1.99972     -18.96367
   196    O   12  S      Val( 2S)     1.62925      -0.90456
   197    O   12  S      Ryd( 3S)     0.00381       0.78794
   198    O   12  S      Ryd( 4S)     0.00014       1.31803
   199    O   12  S      Ryd( 5S)     0.00000      49.68988
   200    O   12  px     Val( 2p)     1.41999      -0.32795
   201    O   12  px     Ryd( 4p)     0.00165       1.14431
   202    O   12  px     Ryd( 3p)     0.00089       0.96501
   203    O   12  px     Ryd( 5p)     0.00003       5.21777
   204    O   12  py     Val( 2p)     1.70852      -0.35612
   205    O   12  py     Ryd( 3p)     0.00312       0.67907
   206    O   12  py     Ryd( 4p)     0.00085       0.89360
   207    O   12  py     Ryd( 5p)     0.00017       5.09852
   208    O   12  pz     Val( 2p)     1.78974      -0.33210
   209    O   12  pz     Ryd( 3p)     0.00251       0.52232
   210    O   12  pz     Ryd( 4p)     0.00056       0.80373
   211    O   12  pz     Ryd( 5p)     0.00000       4.91934
   212    O   12  dxy    Ryd( 3d)     0.00131       3.46168
   213    O   12  dxz    Ryd( 3d)     0.00013       2.95593
   214    O   12  dyz    Ryd( 3d)     0.00095       2.91815
   215    O   12  dx2y2  Ryd( 3d)     0.00096       3.29475
   216    O   12  dz2    Ryd( 3d)     0.00063       3.25501

   217    C   13  S      Cor( 1S)     1.99917     -10.09638
   218    C   13  S      Val( 2S)     1.01672      -0.24723
   219    C   13  S      Ryd( 3S)     0.00434       0.92374
   220    C   13  S      Ryd( 4S)     0.00018       1.27316
   221    C   13  S      Ryd( 5S)     0.00000      22.82824
   222    C   13  px     Val( 2p)     0.71742      -0.06891
   223    C   13  px     Ryd( 4p)     0.00227       0.73849
   224    C   13  px     Ryd( 3p)     0.00062       0.53811
   225    C   13  px     Ryd( 5p)     0.00018       2.71825
   226    C   13  py     Val( 2p)     1.07951      -0.09665
   227    C   13  py     Ryd( 4p)     0.00315       0.73040
   228    C   13  py     Ryd( 3p)     0.00031       0.62460
   229    C   13  py     Ryd( 5p)     0.00024       2.63615
   230    C   13  pz     Val( 2p)     1.19812      -0.09795
   231    C   13  pz     Ryd( 4p)     0.00141       0.63544
   232    C   13  pz     Ryd( 3p)     0.00043       0.60168
   233    C   13  pz     Ryd( 5p)     0.00010       2.69967
   234    C   13  dxy    Ryd( 3d)     0.00134       2.12872
   235    C   13  dxz    Ryd( 3d)     0.00115       1.80750
   236    C   13  dyz    Ryd( 3d)     0.00122       2.21417
   237    C   13  dx2y2  Ryd( 3d)     0.00190       2.07416
   238    C   13  dz2    Ryd( 3d)     0.00117       2.15508

   239    H   14  S      Val( 1S)     0.81497       0.03273
   240    H   14  S      Ryd( 2S)     0.00113       0.73385
   241    H   14  S      Ryd( 3S)     0.00025       2.10520
   242    H   14  px     Ryd( 2p)     0.00012       1.83198
   243    H   14  py     Ryd( 2p)     0.00028       2.10710
   244    H   14  pz     Ryd( 2p)     0.00030       2.46502

   245    H   15  S      Val( 1S)     0.81535       0.03242
   246    H   15  S      Ryd( 2S)     0.00113       0.73289
   247    H   15  S      Ryd( 3S)     0.00025       2.10595
   248    H   15  px     Ryd( 2p)     0.00012       1.82651
   249    H   15  py     Ryd( 2p)     0.00027       2.09902
   250    H   15  pz     Ryd( 2p)     0.00030       2.47802

   251    C   16  S      Cor( 1S)     1.99934     -10.01966
   252    C   16  S      Val( 2S)     1.08724      -0.24967
   253    C   16  S      Ryd( 3S)     0.00072       0.76203
   254    C   16  S      Ryd( 4S)     0.00025       0.81221
   255    C   16  S      Ryd( 5S)     0.00000      23.23087
   256    C   16  px     Val( 2p)     1.15970      -0.09362
   257    C   16  px     Ryd( 4p)     0.00164       0.61742
   258    C   16  px     Ryd( 3p)     0.00012       0.24081
   259    C   16  px     Ryd( 5p)     0.00004       3.09270
   260    C   16  py     Val( 2p)     1.11323      -0.09283
   261    C   16  py     Ryd( 4p)     0.00079       0.55264
   262    C   16  py     Ryd( 3p)     0.00018       0.17601
   263    C   16  py     Ryd( 5p)     0.00010       3.05385
   264    C   16  pz     Val( 2p)     1.21427      -0.09339
   265    C   16  pz     Ryd( 4p)     0.00062       0.53103
   266    C   16  pz     Ryd( 3p)     0.00007       0.19069
   267    C   16  pz     Ryd( 5p)     0.00002       3.11298
   268    C   16  dxy    Ryd( 3d)     0.00053       2.15986
   269    C   16  dxz    Ryd( 3d)     0.00016       1.86266
   270    C   16  dyz    Ryd( 3d)     0.00099       2.22725
   271    C   16  dx2y2  Ryd( 3d)     0.00052       2.07004
   272    C   16  dz2    Ryd( 3d)     0.00067       2.16246

   273    H   17  S      Val( 1S)     0.79492       0.03483
   274    H   17  S      Ryd( 2S)     0.00051       0.66442
   275    H   17  S      Ryd( 3S)     0.00011       2.04838
   276    H   17  px     Ryd( 2p)     0.00031       2.65700
   277    H   17  py     Ryd( 2p)     0.00014       1.78123
   278    H   17  pz     Ryd( 2p)     0.00010       1.76061

   279    H   18  S      Val( 1S)     0.79920       0.04066
   280    H   18  S      Ryd( 2S)     0.00095       0.94047
   281    H   18  S      Ryd( 3S)     0.00015       1.80409
   282    H   18  px     Ryd( 2p)     0.00013       1.80775
   283    H   18  py     Ryd( 2p)     0.00016       2.02036
   284    H   18  pz     Ryd( 2p)     0.00024       2.42293

   285    H   19  S      Val( 1S)     0.79958       0.04033
   286    H   19  S      Ryd( 2S)     0.00095       0.93948
   287    H   19  S      Ryd( 3S)     0.00015       1.80490
   288    H   19  px     Ryd( 2p)     0.00013       1.81049
   289    H   19  py     Ryd( 2p)     0.00017       2.02922
   290    H   19  pz     Ryd( 2p)     0.00023       2.41080

   291    H   20  S      Val( 1S)     0.77881       0.04210
   292    H   20  S      Ryd( 2S)     0.00086       0.74835
   293    H   20  S      Ryd( 3S)     0.00019       1.88994
   294    H   20  px     Ryd( 2p)     0.00029       2.34161
   295    H   20  py     Ryd( 2p)     0.00025       2.37523
   296    H   20  pz     Ryd( 2p)     0.00016       1.59766

   297    O   21  S      Cor( 1S)     1.99976     -18.95089
   298    O   21  S      Val( 2S)     1.67641      -0.92148
   299    O   21  S      Ryd( 4S)     0.00052       1.90827
   300    O   21  S      Ryd( 3S)     0.00036       1.01188
   301    O   21  S      Ryd( 5S)     0.00000      49.53650
   302    O   21  px     Val( 2p)     1.48322      -0.31504
   303    O   21  px     Ryd( 3p)     0.00215       0.48781
   304    O   21  px     Ryd( 4p)     0.00014       1.22548
   305    O   21  px     Ryd( 5p)     0.00002       4.78096
   306    O   21  py     Val( 2p)     1.93850      -0.32478
   307    O   21  py     Ryd( 3p)     0.00397       0.53525
   308    O   21  py     Ryd( 4p)     0.00004       1.19523
   309    O   21  py     Ryd( 5p)     0.00001       4.76871
   310    O   21  pz     Val( 2p)     1.61375      -0.31005
   311    O   21  pz     Ryd( 3p)     0.00181       0.55521
   312    O   21  pz     Ryd( 4p)     0.00014       1.19804
   313    O   21  pz     Ryd( 5p)     0.00002       4.87032
   314    O   21  dxy    Ryd( 3d)     0.00046       3.09476
   315    O   21  dxz    Ryd( 3d)     0.00091       3.16978
   316    O   21  dyz    Ryd( 3d)     0.00071       2.95390
   317    O   21  dx2y2  Ryd( 3d)     0.00075       3.22602
   318    O   21  dz2    Ryd( 3d)     0.00148       3.41155

   319    H   22  S      Val( 1S)     0.52108       0.10080
   320    H   22  S      Ryd( 2S)     0.00059       1.30470
   321    H   22  S      Ryd( 3S)     0.00031       1.40887
   322    H   22  px     Ryd( 2p)     0.00114       1.85404
   323    H   22  py     Ryd( 2p)     0.00178       1.51945
   324    H   22  pz     Ryd( 2p)     0.00071       2.43624

 WARNING:  1 low occupancy (<1.9990e) core orbital  found on  C    3
           1 low occupancy (<1.9990e) core orbital  found on  C    6

 WARNING:  Population inversion found on atom  C    1
           Population inversion found on atom  C    2
           Population inversion found on atom  C    3
           Population inversion found on atom  C    4
           Population inversion found on atom  C    5
           Population inversion found on atom  C    6
           Population inversion found on atom  H    9
           Population inversion found on atom  C   10
           Population inversion found on atom  O   12
           Population inversion found on atom  C   13
           Population inversion found on atom  C   16
           Population inversion found on atom  O   21


 Summary of Natural Population Analysis:                  
                                                          
                                       Natural Population 
                Natural  -----------------------------------------------
    Atom  No    Charge         Core      Valence    Rydberg      Total
 -----------------------------------------------------------------------
      C    1   -0.24100      1.99902     4.22410    0.01787     6.24100
      C    2   -0.15875      1.99909     4.14355    0.01611     6.15875
      C    3   -0.15475      1.99889     4.13820    0.01765     6.15475
      C    4   -0.15157      1.99910     4.13561    0.01686     6.15157
      C    5   -0.24236      1.99904     4.22552    0.01780     6.24236
      C    6    0.31212      1.99867     3.66659    0.02262     5.68788
      H    7    0.22511      0.00000     0.77315    0.00174     0.77489
      H    8    0.22801      0.00000     0.77023    0.00176     0.77199
      H    9    0.22940      0.00000     0.76902    0.00158     0.77060
      C   10    0.80324      1.99940     3.14929    0.04807     5.19676
      O   11   -0.60846      1.99977     6.59788    0.01081     8.60846
      O   12   -0.56494      1.99972     6.54750    0.01772     8.56494
      C   13   -0.03094      1.99917     4.01177    0.02001     6.03094
      H   14    0.18295      0.00000     0.81497    0.00207     0.81705
      H   15    0.18257      0.00000     0.81535    0.00208     0.81743
      C   16   -0.58122      1.99934     4.57444    0.00743     6.58122
      H   17    0.20391      0.00000     0.79492    0.00117     0.79609
[...]
 .00007526,0.00035523,0.00007124,0.00000801,-0.00150830,0.00082455,-0.0
 0003809,-0.00050978,0.00177228,-0.00001888,0.03652007,-0.20076344,0.00
 146578,-0.00019041,-0.11105828,0.00061277,-0.06721426,0.40167023,-0.00
 003171,0.00003705,-0.00036287,-0.00006948,0.00008273,0.00063292,-0.001
 14037,0.00111160,0.01015810,-0.00012505,-0.00016087,0.00142806,-0.0000
 8793,0.00000005,-0.00017888,0.00011392,0.00003928,-0.00015545,-0.00000
 839,-0.00000471,-0.00000808,0.00001988,-0.00000259,0.00010988,-0.00007
 062,0.00001331,0.00016617,-0.00217077,0.00188913,-0.06489321,0.0000456
 7,0.00058484,0.02883159,0.00862979,-0.00303251,0.07575194,0.00072317,-
 0.00082377,0.00001648,-0.00011225,-0.00053065,0.00000699,0.00594874,-0
 .00204938,0.00002910,-0.00060025,0.00118409,-0.00002276,0.00141144,0.0
 0066984,0.00003003,-0.00204240,-0.00037575,-0.00004585,0.00015187,0.00
 007729,0.00000294,-0.00032549,0.00011665,-0.00001277,-0.00062968,-0.00
 067605,-0.00000694,-0.03540903,0.04356831,-0.00105037,-0.00400518,-0.0
 1998173,0.00013966,-0.16304251,-0.01173422,-0.00223194,0.41351117,-0.0
 0001216,0.00044464,-0.00000149,-0.00073061,-0.00019009,-0.00001803,0.0
 0013888,-0.00491991,0.00004741,0.00154177,0.00030425,0.00003623,-0.000
 27161,-0.00060250,-0.00000417,0.00027119,0.00016138,0.00000565,-0.0000
 2455,-0.00001617,-0.00000047,0.00000517,-0.00002502,0.00000113,0.00021
 099,0.00070183,0.00000124,0.04343580,-0.00266783,0.00104298,0.00218691
 ,0.00050673,0.00002248,-0.03413394,-0.08653717,-0.00071943,0.03142072,
 0.55342561,0.00001287,-0.00002057,0.00017330,0.00000807,-0.00001299,-0
 .00030917,0.00001988,-0.00000444,0.00511356,-0.00002513,0.00002740,0.0
 0014854,0.00003467,0.00001880,0.00001165,-0.00004910,-0.00001004,-0.00
 002496,0.00000339,0.00000196,0.00001329,-0.00001247,0.00000374,0.00020
 064,-0.00001064,-0.00001990,-0.00021684,-0.00105057,0.00104361,0.00079
 026,0.00004379,-0.00050247,-0.00615977,-0.00213197,-0.00018841,-0.0667
 8370,-0.00483143,0.00098227,0.61171312,-0.00002692,0.00014797,0.000087
 24,-0.00000498,0.00004437,-0.00007036,-0.00070012,0.00043097,0.0008885
 5,0.00016998,-0.00026556,0.00009725,-0.00027378,-0.00009473,-0.0000560
 1,0.00026499,0.00013266,0.00000670,-0.00002118,-0.00001289,-0.00000186
 ,0.00001516,0.00002119,0.00001627,0.00013446,0.00017318,-0.00009120,0.
 00117985,-0.00904582,-0.00113559,0.00163804,0.00309767,0.00011595,-0.0
 3302212,-0.01191865,-0.03003249,-0.06545466,-0.03347729,-0.05280260,0.
 08549649,-0.00006475,0.00000772,-0.00000578,0.00001268,-0.00004062,0.0
 0007177,-0.00008287,-0.00005302,-0.00051092,-0.00005123,0.00003714,0.0
 0005923,0.00004295,0.00003379,-0.00002133,0.00000007,-0.00006309,0.000
 00314,-0.00000231,-0.00000081,-0.00000610,0.00002534,-0.00001134,0.000
 00106,0.00001940,0.00001508,-0.00002605,0.00188123,0.00156226,0.000785
 56,-0.00047907,-0.00033784,0.00007745,-0.00179161,0.00117941,0.0023185
 0,-0.03656314,-0.11243437,-0.10547414,0.03888189,0.12043709,0.00004079
 ,0.00003070,0.00001319,0.00004706,-0.00004734,0.00000413,-0.00003026,0
 .00037861,-0.00038651,0.00002930,-0.00007239,0.00001176,-0.00006554,0.
 00001814,-0.00000337,0.00003373,0.00004017,-0.00000654,0.00000673,-0.0
 0000133,-0.00000168,-0.00001900,0.00001458,-0.00000592,0.00003278,0.00
 003689,-0.00000788,-0.00027512,-0.00417140,0.00067733,0.00209820,0.001
 07770,0.00048883,-0.00466256,0.00348451,0.00539583,-0.05953485,-0.1040
 5951,-0.23123929,0.06660632,0.11457885,0.24130596,-0.00002061,0.000148
 44,-0.00009013,-0.00000617,0.00004257,0.00006948,-0.00065866,0.0004405
 3,-0.00090490,0.00017579,-0.00026940,-0.00008705,-0.00027898,-0.000093
 40,0.00004368,0.00026625,0.00013451,0.00000506,-0.00002089,-0.00001292
 ,0.00000105,0.00001496,0.00002174,-0.00001550,0.00013138,0.00017550,0.
 00009637,0.00111054,-0.00922242,0.00123681,0.00174067,0.00314446,-0.00
 008476,-0.03457903,-0.01149581,0.02823472,-0.07115859,-0.03786499,0.06
 073683,0.00581130,0.00445924,-0.00656757,0.09216631,-0.00006538,0.0000
 0756,0.00000270,0.00001569,-0.00004072,-0.00007074,-0.00010684,-0.0000
 5177,0.00050340,-0.00004867,0.00003716,-0.00006191,0.00004243,0.000033
 80,0.00002312,0.00000001,-0.00006348,-0.00000264,-0.00000266,-0.000000
 75,0.00000598,0.00002553,-0.00001146,0.00000017,0.00001788,0.00001503,
 0.00002678,0.00191947,0.00158963,-0.00070295,-0.00049123,-0.00034844,-
 0.00009436,-0.00164974,0.00112636,-0.00235598,-0.04095915,-0.11068578,
 0.10264541,0.00513608,0.00790217,-0.01300856,0.04364717,0.11852577,-0.
 00004186,-0.00002366,0.00000721,-0.00004770,0.00004980,0.00000540,0.00
 001798,-0.00036116,-0.00042880,-0.00002104,0.00005943,0.00000617,0.000
 05207,-0.00002291,0.00000173,-0.00002076,-0.00003334,-0.00000754,-0.00
 000762,0.00000071,-0.00000201,0.00001978,-0.00001352,-0.00000561,-0.00
 002634,-0.00002882,-0.00000478,0.00028039,0.00373190,0.00071897,-0.002
 03580,-0.00092303,0.00039502,0.00278075,-0.00399564,0.00700442,0.06749
 726,0.10137613,-0.22729277,0.00782850,0.01298552,-0.02164492,-0.074073
 67,-0.11161634,0.23655731,-0.00008372,0.00001605,-0.00000002,0.0001911
 9,0.00018065,0.00000374,-0.00065041,0.00211075,-0.00002300,-0.00045662
 ,-0.00035678,-0.00001178,-0.00016728,0.00010489,-0.00000278,0.00024291
 ,0.00005551,0.00000459,-0.00002642,-0.00000978,-0.00000091,0.00003632,
 0.00001312,0.00000055,0.00004946,-0.00005359,-0.00000276,-0.00678321,-
 0.00705544,-0.00012804,0.00324595,0.00174275,0.00004440,-0.03148625,0.
 04720792,-0.00097825,-0.07583520,0.01859700,0.00015384,0.00469021,-0.0
 0806514,0.00165045,0.00522051,-0.00929495,-0.00146341,0.56372803,-0.00
 004585,-0.00001495,-0.00000136,0.00000482,0.00013660,-0.00000044,-0.00
 006726,0.00045247,-0.00000405,-0.00005155,-0.00015370,-0.00000016,-0.0
 0010462,-0.00003210,-0.00000258,0.00009285,0.00006928,0.00000203,-0.00
 002160,-0.00000166,-0.00000044,0.00001159,-0.00000516,0.00000032,-0.00
 002906,0.00002215,-0.00000006,-0.00166229,-0.00197583,-0.00003081,0.00
 128962,0.00057609,0.00003242,0.00557735,0.00052859,0.00013554,0.032026
 90,-0.20581153,0.00126776,0.00497406,-0.01518712,0.00169020,0.00496356
 ,-0.01498170,-0.00130589,0.02750804,0.49489561,0.00000018,0.00000006,-
 0.00008333,0.00000442,0.00000376,0.00000387,-0.00001304,0.00004770,-0.
 00009057,-0.00001289,-0.00000742,0.00009460,-0.00000211,0.00000237,-0.
 00006004,0.00000456,0.00000117,0.00003449,-0.00000087,-0.00000016,0.00
 001380,0.00000061,0.00000035,0.00000890,-0.00000287,-0.00000063,0.0001
 7448,-0.00015349,-0.00015762,-0.00000198,0.00004561,0.00004363,0.00104
 691,-0.00079990,0.00112151,0.00126319,0.00009712,0.00094909,-0.0856417
 0,0.00966224,-0.02580626,0.00291676,-0.00959052,0.02554329,0.00218274,
 -0.00029484,0.00097565,0.57125407,-0.00005770,0.00007233,-0.00000221,0
 .00006193,-0.00001094,0.00000188,-0.00011908,0.00018911,-0.00000343,0.
 00000354,-0.00008965,0.00000111,-0.00007696,-0.00002378,-0.00000183,0.
 00017016,-0.00000246,0.00000423,-0.00000521,-0.00000674,-0.00000008,0.
 00001813,-0.00000352,0.00000044,0.00006294,0.00001232,0.00000253,0.000
 45482,-0.00176831,0.00000717,0.00023809,0.00074344,0.00000581,-0.00019
 269,0.00357791,-0.00004448,-0.00960521,-0.00252557,-0.00016299,0.00034
 773,0.00036168,0.00036516,0.00036182,0.00036271,-0.00035174,-0.3074758
 0,0.01123502,-0.00624973,0.33520657,0.00004983,0.00000693,0.00000124,-
 0.00003134,-0.00013981,-0.00000024,0.00020057,-0.00067879,0.00000778,0
 .00014601,0.00016216,0.00000269,0.00008086,-0.00000669,0.00000193,-0.0
 0011537,-0.00003994,-0.00000258,0.00002078,0.00000271,0.00000048,-0.00
 002242,0.00000595,-0.00000054,0.00001703,-0.00001931,0.00000030,0.0016
 6683,0.00243267,0.00003055,-0.00069087,-0.00060346,-0.00001434,0.00466
 476,-0.00873890,0.00015245,0.02996280,0.00328087,0.00068658,-0.0005869
 7,0.00094058,-0.00072217,-0.00061977,0.00094575,0.00068565,0.00855736,
 -0.04873335,0.00021515,-0.01265296,0.05061351,-0.00000213,0.00000179,0
 .00002303,0.00000197,0.00000027,-0.00001551,-0.00000344,0.00000729,-0.
 00001003,0.00000012,-0.00000292,-0.00002718,-0.00000229,-0.00000052,0.
 00000490,0.00000474,0.00000008,-0.00000899,-0.00000020,-0.00000017,-0.
 00000042,0.00000053,-0.00000011,-0.00000025,0.00000252,0.00000018,-0.0
 0004601,-0.00000783,-0.00005018,0.00048972,0.00001207,0.00001951,-0.00
 014629,-0.00004876,0.00012627,0.00102934,-0.00030055,-0.00008335,-0.00
 228618,-0.00005018,0.00009090,0.00001711,0.00007175,-0.00008166,-0.000
 00225,-0.00623852,0.00027866,-0.04593211,0.00692609,-0.00032260,0.0453
 9720,0.00002378,-0.00005883,0.00001631,-0.00005008,0.00005410,-0.00001
 850,0.00009213,-0.00010565,0.00008016,-0.00001246,0.00003296,-0.000003
 60,0.00004402,0.00000587,-0.00000492,-0.00009250,0.00000657,-0.0000044
 6,-0.00000239,0.00000451,-0.00000058,-0.00000213,-0.00000484,0.0000016
 5,-0.00008161,0.00000257,-0.00004272,-0.00003731,0.00097783,-0.0000017
 6,-0.00035725,-0.00034083,0.00002482,0.00203906,-0.00101080,-0.0003866
 9,0.00227475,0.00577141,-0.00940219,0.00004042,-0.00075488,0.00018566,
 0.00005146,0.00217815,-0.00017368,-0.08049965,-0.04485050,0.07639505,-
 0.01022583,-0.01525250,0.02650674,0.08301046,0.00003897,0.00000701,-0.
 00002387,0.00001434,-0.00006268,0.00000681,0.00004616,0.00005056,0.000
 03855,0.00000678,0.00001150,0.00001278,0.00000769,0.00002279,-0.000011
 49,-0.00002777,-0.00000210,0.00001307,0.00000674,0.00000152,0.00000338
 ,-0.00001511,0.00001212,0.00000601,0.00002945,0.00000562,0.00003853,-0
 .00042039,-0.00085909,-0.00014199,0.00075773,0.00026730,-0.00021356,-0
 .00123699,0.00280439,-0.00104658,-0.01335364,-0.01735300,0.02921895,-0
 .00044036,0.00128141,-0.00037731,0.00285676,-0.00529297,-0.00091664,-0
 .04264537,-0.10404268,0.09674403,0.00031638,0.00026191,-0.00237186,0.0
 4730027,0.11522184,-0.00000965,-0.00003524,0.00001712,-0.00003447,0.00
 010828,0.00000629,-0.00001339,0.00002865,0.00002519,-0.00001560,-0.000
 03549,0.00000222,-0.00001176,-0.00002480,-0.00000147,0.00000942,0.0000
 2813,-0.00000582,-0.00001375,0.00000296,-0.00000479,0.00000880,-0.0000
 1050,-0.00000284,-0.00006146,0.00002664,-0.00004944,-0.00003052,0.0000
 9787,0.00001954,-0.00014186,-0.00028003,-0.00004269,-0.00052294,-0.000
 10503,0.00035739,-0.00037238,-0.00010738,0.00061877,-0.00054373,0.0003
 0622,0.00092760,0.00038526,-0.00040000,0.00155907,0.07589950,0.0986262
 0,-0.22099632,-0.00053961,-0.00183788,0.00139769,-0.08411793,-0.108710
 25,0.23650406,0.00002409,-0.00006058,-0.00001550,-0.00005246,0.0000593
 1,0.00001526,0.00009513,-0.00010483,-0.00007590,-0.00001332,0.00003127
 ,0.00000262,0.00004313,0.00000473,0.00000697,-0.00009208,0.00000792,0.
 00000035,-0.00000308,0.00000465,0.00000062,-0.00000165,-0.00000534,-0.
 00000154,-0.00008650,0.00000420,0.00004090,-0.00003860,0.00098126,-0.0
 0000983,-0.00036190,-0.00035400,-0.00003674,0.00199178,-0.00101062,0.0
 0047319,0.00180703,0.00583566,0.00940356,0.00006593,0.00215654,0.00008
 492,0.00002523,-0.00074116,-0.00022211,-0.07362407,-0.04071997,-0.0690
 8254,-0.00897396,-0.01554843,-0.02686732,0.00368132,0.00671758,0.01013
 992,0.07541095,0.00003787,0.00000752,0.00002573,0.00001491,-0.00006364
 ,-0.00000544,0.00004804,0.00004991,-0.00003669,0.00000751,0.00001169,-
 0.00001253,0.00000724,0.00002309,0.00001167,-0.00002720,-0.00000245,-0
 .00001437,0.00000701,0.00000147,-0.00000311,-0.00001488,0.00001215,-0.
 00000684,0.00003179,0.00000508,-0.00003752,-0.00042637,-0.00085807,0.0
 0012978,0.00074746,0.00027158,0.00024647,-0.00127964,0.00281351,0.0009
 6631,-0.01195438,-0.01759921,-0.02966223,0.00280512,-0.00528064,0.0011
 0837,-0.00045325,0.00128176,0.00035327,-0.03860232,-0.10572258,-0.0996
 7550,0.00020589,0.00029459,0.00238830,0.00605316,0.00766022,0.01233666
 ,0.04275107,0.11708959,0.00000966,0.00003250,0.00001633,0.00003154,-0.
 00010501,0.00000957,0.00001630,-0.00003387,0.00002284,0.00001481,0.000
 03694,0.00000291,0.00001381,0.00002485,-0.00000091,-0.00001328,-0.0000
 2782,-0.00000588,0.00001377,-0.00000279,-0.00000405,-0.00000862,0.0000
 1013,-0.00000336,0.00005945,-0.00002692,-0.00004402,0.00003133,-0.0000
 4396,0.00002028,0.00012047,0.00026081,-0.00004230,0.00061147,0.0000365
 3,0.00039569,0.00052993,0.00053881,0.00133282,-0.00047971,0.00056060,0
 .00153206,0.00050473,-0.00034458,0.00094240,-0.06860527,-0.10166000,-0
 .22619168,0.00004635,0.00111196,0.00011319,-0.00905534,-0.01227117,-0.
 02033026,0.07614014,0.11188843,0.24223503,-0.00065786,-0.00325792,-0.0
 0012411,-0.00091062,-0.00069868,0.00000225,-0.00518503,-0.00186072,-0.
 00028655,-0.01205431,0.02914637,-0.00045571,-0.12744279,0.11803694,-0.
 00274797,0.00727689,-0.01360319,0.00015039,0.00050916,-0.00063149,0.00
 001336,0.00116904,-0.00030504,0.00013324,0.00002049,0.00010903,0.00001
 689,0.00089733,0.00159975,-0.00000440,-0.00035771,-0.00036730,-0.00000
 652,-0.00112399,0.00025139,-0.00002276,0.00026733,0.00009429,0.0000085
 7,-0.00004041,-0.00000229,-0.00000796,-0.00004187,-0.00000201,0.000005
 93,-0.00008487,-0.00002410,-0.00000188,-0.00002209,0.00003402,-0.00000
 075,0.00001103,0.00000358,-0.00000193,0.00001093,0.00000374,0.00000248
 ,0.13403235,-0.00413206,-0.00322623,-0.00006302,-0.00111509,0.00005403
 ,-0.00003026,-0.00077868,0.00205409,0.00000293,-0.00156707,0.00412504,
 -0.00004517,0.11807934,-0.26011494,0.00373124,0.01927947,-0.01896651,0
 .00054735,0.00087481,-0.00099150,0.00002512,0.00022459,0.00071330,-0.0
 0001572,0.00005902,-0.00002159,-0.00000142,-0.00044016,0.00015265,-0.0
 0000778,0.00020465,0.00001640,0.00000468,0.00014450,-0.00008409,0.0000
 0292,-0.00011819,0.00001638,-0.00000333,0.00001184,0.00000236,0.000000
 08,0.00001202,0.00000232,0.00000048,0.00001101,0.00000196,0.00000025,0
 .00000861,-0.00000391,0.00000023,-0.00000560,-0.00000151,-0.00000189,-
 0.00000568,-0.00000152,0.00000163,-0.12892075,0.27452695,-0.00012120,-
 0.00004187,0.00516781,0.00000404,-0.00002026,-0.00088431,-0.00029122,-
 0.00002243,0.00726661,-0.00032933,0.00068058,0.00212878,-0.00274764,0.
 00373166,-0.03184292,0.00001569,-0.00023101,0.00328339,0.00000711,-0.0
 0001065,0.00005817,0.00013090,-0.00002842,-0.00441065,0.00001711,-0.00
 000034,-0.00071240,0.00000406,0.00004054,0.00080077,-0.00000885,-0.000
 00883,-0.00001571,-0.00002210,0.00000540,-0.00021145,0.00000951,0.0000
 0165,-0.00011297,-0.00002542,0.00000477,0.00000103,0.00002329,-0.00000
 488,0.00000256,-0.00000201,-0.00000058,-0.00000153,-0.00000064,0.00000
 083,0.00000340,0.00000038,0.00000301,-0.00000132,0.00000024,-0.0000028
 3,-0.00000121,0.00317065,-0.00408594,0.02246073,-0.04716528,0.01299329
 ,-0.00132450,0.00786029,0.00307370,0.00006130,-0.01229606,-0.00089836,
 -0.00026381,0.00614305,-0.00394686,-0.00002773,-0.04548347,-0.00701215
 ,-0.00124536,-0.29230162,-0.04218821,-0.00573506,0.00131990,-0.0006351
 6,0.00010719,-0.00121931,0.00022030,-0.00002138,-0.00075055,0.00000640
 ,-0.00001756,0.01291265,-0.00092878,0.00033503,-0.00476060,-0.00269950
 ,-0.00010321,-0.00486237,0.00361406,-0.00013180,0.00242583,-0.00050682
 ,0.00005940,-0.00034757,0.00001469,-0.00002298,-0.00034839,0.00001527,
 0.00000589,-0.00026751,-0.00011745,-0.00000559,-0.00019745,0.00013682,
 -0.00000524,0.00010695,0.00004155,-0.00001309,0.00010613,0.00004139,0.
 00001765,0.00388163,0.00018774,0.00017267,0.48454022,0.04953239,0.0055
 2159,0.00117354,-0.00501215,-0.00960243,-0.00005842,-0.00014551,0.0060
 4941,-0.00003260,0.00597046,-0.00844565,0.00020948,-0.04460513,0.00214
 310,-0.00102419,0.00908318,-0.11096449,0.00049844,-0.00079957,0.001881
 23,-0.00003975,-0.00138042,0.00019385,-0.00003520,0.00147160,0.0001448
 4,0.00003437,-0.00028728,0.00012772,-0.00001170,0.00029808,0.00044284,
 0.00000551,-0.00013147,0.00026234,-0.00000411,-0.00003588,0.00003878,-
 0.00000091,0.00000612,0.00000559,0.00000310,0.00000629,0.00000548,-0.0
 0000278,-0.00001101,-0.00001217,-0.00000026,0.00000857,0.00000973,0.00
 000016,-0.00000799,0.00000330,-0.00001277,-0.00000857,0.00000345,0.000
 01237,-0.00059423,0.00255966,-0.00003917,-0.14917480,0.55913317,-0.001
 48028,0.00031275,0.00676389,0.00009458,0.00013284,0.00474232,-0.000266
 30,-0.00005043,-0.00097003,-0.00006980,-0.00002533,0.00805360,-0.00109
 305,-0.00014000,0.00862369,-0.00593634,-0.00070642,-0.04178869,0.00010
 830,-0.00003593,-0.00312277,-0.00001443,0.00000284,-0.00036610,-0.0000
 2328,-0.00000055,-0.00002432,0.00033065,-0.00002667,-0.00106496,-0.000
 11540,-0.00006513,0.00008749,-0.00011484,0.00008414,0.00003315,0.00005
 691,-0.00001201,0.00001595,-0.00001294,0.00001108,0.00000836,-0.000003
 92,-0.00001035,0.00000937,-0.00000599,-0.00000276,-0.00001052,-0.00000
 466,0.00000318,-0.00000124,0.00000062,-0.00000481,0.00000249,0.0000043
 3,0.00000676,0.00000314,0.00017654,-0.00002052,-0.00349303,0.01140944,
 -0.00569144,0.02616114,-0.00664681,-0.00323702,-0.00020160,0.00022889,
 0.00213720,-0.00004818,0.00094677,-0.00062376,0.00003162,-0.00091293,0
 .00052628,0.00000287,0.00351893,0.00133445,0.00008323,-0.02419315,0.04
 620430,-0.00068624,0.00011893,0.00002062,0.00001765,0.00021032,-0.0000
 0734,0.00000412,-0.00044073,-0.00012693,-0.00000217,-0.00112432,0.0001
 0023,-0.00003208,0.00044594,0.00010496,0.00000980,0.00061318,-0.000431
 13,0.00001556,-0.00030088,0.00003776,-0.00000578,0.00003718,0.00000161
 ,0.00000473,0.00003698,0.00000139,-0.00000281,0.00003644,0.00001043,0.
 00000044,0.00002622,-0.00001705,0.00000067,-0.00001416,-0.00000435,0.0
 0000117,-0.00001403,-0.00000414,-0.00000168,-0.00015461,-0.00201432,-0
 .00000724,-0.10929648,0.13581731,-0.00304015,0.13687833,-0.00161509,0.
 00232449,-0.00003751,0.00054097,-0.00009581,0.00002085,-0.00107172,0.0
 0009719,-0.00002688,0.00061515,-0.00118012,0.00001473,-0.00609650,0.00
 358224,-0.00015953,-0.00147648,0.00130508,-0.00005237,-0.00021891,0.00
 037477,-0.00000932,-0.00019424,0.00000358,-0.00000446,0.00003843,0.000
 06407,-0.00000076,0.00108100,-0.00006151,0.00002679,-0.00034792,-0.000
 28924,-0.00000696,-0.00025269,0.00024691,-0.00000692,0.00012934,-0.000
 03788,0.00000295,-0.00002084,0.00000425,-0.00000188,-0.00002084,0.0000
 0429,0.00000082,-0.00001065,-0.00000822,-0.00000015,-0.00001004,0.0000
 0678,-0.00000026,0.00000502,0.00000254,-0.00000035,0.00000498,0.000002
 51,0.00000055,0.00098864,-0.00081334,0.00002877,0.18776287,-0.44950134
 ,0.00623876,-0.17983049,0.44396874,-0.00020965,-0.00007520,0.00249456,
 -0.00004161,0.00005894,0.00188461,0.00003349,-0.00001634,-0.00027182,0
 .00000262,0.00001254,-0.00114466,0.00011390,0.00001607,-0.00024440,-0.
 00049125,0.00106810,-0.00311894,0.00001865,-0.00000376,-0.00063047,0.0
 0000477,-0.00000001,0.00004011,-0.00000273,-0.00000462,-0.00033169,-0.
 00003624,0.00000345,0.00021129,0.00001175,0.00000383,0.00001243,0.0000
 1470,-0.00001105,0.00003597,-0.00000610,0.00000078,-0.00006455,-0.0000
 0690,-0.00000407,-0.00000384,0.00000900,0.00000408,-0.00000369,0.00000
 052,0.00000035,0.00001596,0.00000064,-0.00000043,0.00000086,0.00000096
 ,0.00000442,-0.00000248,-0.00000155,-0.00000467,-0.00000257,-0.0000197
 7,-0.00004184,0.00051427,-0.00325127,0.00501633,-0.00366291,0.00385607
 ,-0.00602688,0.00427196\\-0.00000183,-0.00000153,0.00000687,0.00000044
 ,0.00000445,0.00000378,-0.00000332,-0.00000811,-0.00000352,0.00000023,
 0.00000070,0.00000381,-0.00000351,0.00000676,0.00000513,0.00001416,0.0
 0000109,-0.00002323,-0.00000125,0.00000215,0.00000001,0.00000195,-0.00
 000051,0.00000024,0.00000208,0.00000076,-0.00000116,0.00000821,0.00000
 625,-0.00000316,-0.00000036,-0.00000486,0.00000021,-0.00000008,0.00000
 030,0.00000190,-0.00001033,-0.00001573,-0.00000022,0.00000279,0.000002
 50,0.00000022,0.00000160,0.00000230,0.00000114,-0.00000127,0.00001007,
 -0.00000053,-0.00000063,-0.00000517,0.00000001,-0.00000028,-0.00000268
 ,-0.00000021,-0.00000021,-0.00000335,0.00000014,0.00000218,-0.00000046
 ,0.00000055,-0.00000943,0.00000308,0.00000667,-0.00000114,0.00000197,0
 .00000131\\\@


 IMAGINATION WILL OFTEN CARRY US TO WORLDS THAT NEVER WERE.
 BUT WITHOUT IT, WE GO NOWHERE. -- CARL SAGAN (COSMOS)
 Job cpu time:       0 days  1 hours  1 minutes 48.4 seconds.
 File lengths (MBytes):  RWF=    218 Int=      0 D2E=      0 Chk=      9 Scr=      1
 Normal termination of Gaussian 09 at Tue Apr 23 12:05:53 2024.
