	You are loading a legacy vmd module, please load an up to date module instead.


	 module load container_env vmd

	Please run vmd command with crun.vmd prepend to it:
	
	 crun.vmd vmd

	 
module: Command not found.
module: Command not found.
 Entering Gaussian System, Link 0=g09
 Initial command:
 /opt/gaussian/g09/l1.exe "/tmp/G09-76.com.o10577468.tmp/Gau-3147601.inp" -scrdir="/tmp/G09-76.com.o10577468.tmp/"
 Entering Link 1 = /opt/gaussian/g09/l1.exe PID=   3147602.
  
 Copyright (c) 1988,1990,1992,1993,1995,1998,2003,2009,2013,
            Gaussian, Inc.  All Rights Reserved.
  
 This is part of the Gaussian(R) 09 program.  It is based on
 the Gaussian(R) 03 system (copyright 2003, Gaussian, Inc.),
 the Gaussian(R) 98 system (copyright 1998, Gaussian, Inc.),
 the Gaussian(R) 94 system (copyright 1995, Gaussian, Inc.),
 the Gaussian 92(TM) system (copyright 1992, Gaussian, Inc.),
 the Gaussian 90(TM) system (copyright 1990, Gaussian, Inc.),
 the Gaussian 88(TM) system (copyright 1988, Gaussian, Inc.),
 the Gaussian 86(TM) system (copyright 1986, Carnegie Mellon
 University), and the Gaussian 82(TM) system (copyright 1983,
 Carnegie Mellon University). Gaussian is a federally registered
 trademark of Gaussian, Inc.
  
 This software contains proprietary and confidential information,
 including trade secrets, belonging to Gaussian, Inc.
  
 This software is provided under written license and may be
 used, copied, transmitted, or stored only in accord with that
 written license.
  
 The following legend is applicable only to US Government
 contracts under FAR:
  
                    RESTRICTED RIGHTS LEGEND
  
 Use, reproduction and disclosure by the US Government is
 subject to restrictions as set forth in subparagraphs (a)
 and (c) of the Commercial Computer Software - Restricted
 Rights clause in FAR 52.227-19.
  
 Gaussian, Inc.
 340 Quinnipiac St., Bldg. 40, Wallingford CT 06492
  
  
 ---------------------------------------------------------------
 Warning -- This program may not be used in any manner that
 competes with the business of Gaussian, Inc. or will provide
 assistance to any competitor of Gaussian, Inc.  The licensee
 of this program is prohibited from giving any competitor of
 Gaussian, Inc. access to this program.  By using this program,
 the user acknowledges that Gaussian, Inc. is engaged in the
 business of creating and licensing software in the field of
 computational chemistry and represents and warrants to the
 licensee that it is not a competitor of Gaussian, Inc. and that
 it will not use this program in any manner prohibited above.
 ---------------------------------------------------------------
  

 Cite this work as:
 Gaussian 09, Revision D.01,
 M. J. Frisch, G. W. Trucks, H. B. Schlegel, G. E. Scuseria, 
 M. A. Robb, J. R. Cheeseman, G. Scalmani, V. Barone, B. Mennucci, 
 G. A. Petersson, H. Nakatsuji, M. Caricato, X. Li, H. P. Hratchian, 
 A. F. Izmaylov, J. Bloino, G. Zheng, J. L. Sonnenberg, M. Hada, 
 M. Ehara, K. Toyota, R. Fukuda, J. Hasegawa, M. Ishida, T. Nakajima, 
 Y. Honda, O. Kitao, H. Nakai, T. Vreven, J. A. Montgomery, Jr., 
 J. E. Peralta, F. Ogliaro, M. Bearpark, J. J. Heyd, E. Brothers, 
 K. N. Kudin, V. N. Staroverov, T. Keith, R. Kobayashi, J. Normand, 
 K. Raghavachari, A. Rendell, J. C. Burant, S. S. Iyengar, J. Tomasi, 
 M. Cossi, N. Rega, J. M. Millam, M. Klene, J. E. Knox, J. B. Cross, 
 V. Bakken, C. Adamo, J. Jaramillo, R. Gomperts, R. E. Stratmann, 
 O. Yazyev, A. J. Austin, R. Cammi, C. Pomelli, J. W. Ochterski, 
 R. L. Martin, K. Morokuma, V. G. Zakrzewski, G. A. Voth, 
 P. Salvador, J. J. Dannenberg, S. Dapprich, A. D. Daniels, 
 O. Farkas, J. B. Foresman, J. V. Ortiz, J. Cioslowski, 
 and D. J. Fox, Gaussian, Inc., Wallingford CT, 2013.
 
 ******************************************
 Gaussian 09:  ES64L-G09RevD.01 24-Apr-2013
                23-Apr-2024 
 ******************************************
 %nprocshared=20
 Will use up to   20 processors via shared memory.
 %mem=4GB
 %chk=76.chk
 ----------------------------------------------------------------------
 # opt freq=noraman b3lyp/6-311+g(d,p) pop=(npa,hirshfeld,chelpg,mbs) g
 eom=connectivity
 ----------------------------------------------------------------------
 1/14=-1,18=20,19=15,26=3,38=1,57=2/1,3;
 2/9=110,12=2,17=6,18=5,40=1/2;
 3/5=4,6=6,7=111,11=2,16=1,25=1,30=1,71=1,74=-5/1,2,3;
 4//1;
 5/5=2,38=5/2;
 6/7=2,8=2,9=2,10=2,15=8,20=3,27=100,28=1,40=-1,79=1/1,2,7;
 7//1,2,3,16;
 1/14=-1,18=20,19=15,26=3/3(2);
 2/9=110/2;
 99//99;
 2/9=110/2;
 3/5=4,6=6,7=111,11=2,16=1,25=1,30=1,71=1,74=-5/1,2,3;
 4/5=5,16=3,69=1/1;
 5/5=2,38=5/2;
 7//1,2,3,16;
 1/14=-1,18=20,19=15,26=3/3(-5);
 2/9=110/2;
 6/7=2,8=2,9=2,10=2,15=8,19=2,20=3,27=100,28=1,40=-1,79=1/1,2,7;
 99/9=1/99;
 -------------------
 Title Card Required
 -------------------
 Symbolic Z-matrix:
 Charge =  0 Multiplicity = 1
 C                     0.8939   -3.23478  -0.19082 
 C                     1.95673  -2.43485   0.25217 
 C                     1.79631  -1.04681   0.3432 
 C                     0.57561  -0.45615  -0.01086 
 C                    -0.48717  -1.25527  -0.4543 
 C                    -0.32916  -2.64514  -0.54108 
 H                     1.01748  -4.29619  -0.26078 
 H                     2.89131  -2.88633   0.51976 
 H                     2.6076   -0.43844   0.68204 
 H                    -1.41986  -0.8035   -0.72642 
 Cl                   -1.66739  -3.65017  -1.09256 
 N                     0.41307   1.00252   0.08389 
 C                     0.83791   1.62171  -1.17912 
 O                     0.70137   0.99773  -2.26333 
 O                     1.4084    2.93204  -1.17408 
 C                     1.23767   1.51503   1.18667 
 O                     2.30661   0.92979   1.4979 
 O                     0.82151   2.68005   1.90555 
 C                     2.30774   3.06366  -2.27916 
 C                     1.27857   2.59724   3.25825 
 C                     3.41597   1.99774  -2.17145 
 H                     2.97457   1.02249  -2.18301 
 H                     4.08591   2.09609  -2.99989 
 H                     3.95695   2.13502  -1.2587 
 C                     1.53115   2.86569  -3.59511 
 H                     2.20159   2.96048  -4.42248 
 H                     1.08934   1.89001  -3.60426 
 H                     0.76361   3.60733  -3.67184 
 C                     2.94258   4.46742  -2.25935 
 H                     3.61324   4.56689  -3.08785 
 H                     2.17342   5.20717  -2.33132 
 H                     3.48203   4.60345  -1.34475 
 C                     0.68548   1.34355   3.92403 
 H                     0.99701   0.47438   3.38601 
 H                     1.02954   1.27835   4.93514 
 H                    -0.38233   1.40725   3.91577 
 C                     2.81617   2.51055   3.27574 
 H                     3.22845   3.38176   2.81126 
 H                     3.15854   2.44997   4.28928 
 H                     3.12981   1.64053   2.74117 
 C                     0.82478   3.84902   4.03253 
 H                    -0.2434    3.90877   4.0208 
 H                     1.16489   3.78625   5.04337 
 H                     1.23794   4.72197   3.5702 
 

 GradGradGradGradGradGradGradGradGradGradGradGradGradGradGradGradGradGrad
 Berny optimization.
 Initialization pass.
                           ----------------------------
                           !    Initial Parameters    !
                           ! (Angstroms and Degrees)  !
 --------------------------                            --------------------------
 ! Name  Definition              Value          Derivative Info.                !
 --------------------------------------------------------------------------------
 ! R1    R(1,2)                  1.402          estimate D2E/DX2                !
 ! R2    R(1,6)                  1.4022         estimate D2E/DX2                !
 ! R3    R(1,7)                  1.0709         estimate D2E/DX2                !
 ! R4    R(2,3)                  1.4002         estimate D2E/DX2                !
 ! R5    R(2,8)                  1.0719         estimate D2E/DX2                !
 ! R6    R(3,4)                  1.4016         estimate D2E/DX2                !
 ! R7    R(3,9)                  1.0692         estimate D2E/DX2                !
 ! R8    R(4,5)                  1.4017         estimate D2E/DX2                !
 ! R9    R(4,12)                 1.4707         estimate D2E/DX2                !
 ! R10   R(5,6)                  1.4015         estimate D2E/DX2                !
 ! R11   R(5,10)                 1.0715         estimate D2E/DX2                !
 ! R12   R(6,11)                 1.7621         estimate D2E/DX2                !
 ! R13   R(12,13)                1.4694         estimate D2E/DX2                !
 ! R14   R(12,16)                1.4693         estimate D2E/DX2                !
 ! R15   R(13,14)                1.2584         estimate D2E/DX2                !
 ! R16   R(13,15)                1.4291         estimate D2E/DX2                !
 ! R17   R(15,19)                1.4308         estimate D2E/DX2                !
 ! R18   R(16,17)                1.2578         estimate D2E/DX2                !
 ! R19   R(16,18)                1.4308         estimate D2E/DX2                !
 ! R20   R(18,20)                1.4302         estimate D2E/DX2                !
 ! R21   R(19,21)                1.5414         estimate D2E/DX2                !
 ! R22   R(19,25)                1.5408         estimate D2E/DX2                !
 ! R23   R(19,29)                1.5408         estimate D2E/DX2                !
 ! R24   R(20,33)                1.5384         estimate D2E/DX2                !
 ! R25   R(20,37)                1.5401         estimate D2E/DX2                !
 ! R26   R(20,41)                1.5403         estimate D2E/DX2                !
 ! R27   R(21,22)                1.0706         estimate D2E/DX2                !
 ! R28   R(21,23)                1.07           estimate D2E/DX2                !
 ! R29   R(21,24)                1.0699         estimate D2E/DX2                !
 ! R30   R(25,26)                1.0691         estimate D2E/DX2                !
 ! R31   R(25,27)                1.0711         estimate D2E/DX2                !
 ! R32   R(25,28)                1.0701         estimate D2E/DX2                !
 ! R33   R(29,30)                1.0706         estimate D2E/DX2                !
 ! R34   R(29,31)                1.0696         estimate D2E/DX2                !
 ! R35   R(29,32)                1.0705         estimate D2E/DX2                !
 ! R36   R(33,34)                1.0686         estimate D2E/DX2                !
 ! R37   R(33,35)                1.07           estimate D2E/DX2                !
 ! R38   R(33,36)                1.0697         estimate D2E/DX2                !
 ! R39   R(37,38)                1.0699         estimate D2E/DX2                !
 ! R40   R(37,39)                1.0715         estimate D2E/DX2                !
 ! R41   R(37,40)                1.0682         estimate D2E/DX2                !
 ! R42   R(41,42)                1.0699         estimate D2E/DX2                !
 ! R43   R(41,43)                1.0684         estimate D2E/DX2                !
 ! R44   R(41,44)                1.0708         estimate D2E/DX2                !
 ! A1    A(2,1,6)              120.0137         estimate D2E/DX2                !
 ! A2    A(2,1,7)              119.9117         estimate D2E/DX2                !
 ! A3    A(6,1,7)              120.0746         estimate D2E/DX2                !
 ! A4    A(1,2,3)              119.9513         estimate D2E/DX2                !
 ! A5    A(1,2,8)              119.9691         estimate D2E/DX2                !
 ! A6    A(3,2,8)              120.0796         estimate D2E/DX2                !
 ! A7    A(2,3,4)              120.0744         estimate D2E/DX2                !
 ! A8    A(2,3,9)              119.8493         estimate D2E/DX2                !
 ! A9    A(4,3,9)              120.0762         estimate D2E/DX2                !
 ! A10   A(3,4,5)              120.0019         estimate D2E/DX2                !
 ! A11   A(3,4,12)             119.8646         estimate D2E/DX2                !
 ! A12   A(5,4,12)             120.1335         estimate D2E/DX2                !
 ! A13   A(4,5,6)              119.9657         estimate D2E/DX2                !
 ! A14   A(4,5,10)             119.998          estimate D2E/DX2                !
 ! A15   A(6,5,10)             120.0363         estimate D2E/DX2                !
 ! A16   A(1,6,5)              119.9921         estimate D2E/DX2                !
 ! A17   A(1,6,11)             120.0496         estimate D2E/DX2                !
 ! A18   A(5,6,11)             119.9582         estimate D2E/DX2                !
 ! A19   A(4,12,13)            109.3057         estimate D2E/DX2                !
 ! A20   A(4,12,16)            109.4075         estimate D2E/DX2                !
 ! A21   A(13,12,16)           109.6265         estimate D2E/DX2                !
 ! A22   A(12,13,14)           120.0172         estimate D2E/DX2                !
 ! A23   A(12,13,15)           119.9171         estimate D2E/DX2                !
 ! A24   A(14,13,15)           120.0657         estimate D2E/DX2                !
 ! A25   A(13,15,19)           109.4218         estimate D2E/DX2                !
 ! A26   A(12,16,17)           120.0258         estimate D2E/DX2                !
 ! A27   A(12,16,18)           119.8602         estimate D2E/DX2                !
 ! A28   A(17,16,18)           120.114          estimate D2E/DX2                !
 ! A29   A(16,18,20)           109.5782         estimate D2E/DX2                !
 ! A30   A(15,19,21)           109.5308         estimate D2E/DX2                !
 ! A31   A(15,19,25)           109.3303         estimate D2E/DX2                !
 ! A32   A(15,19,29)           109.4424         estimate D2E/DX2                !
 ! A33   A(21,19,25)           109.4633         estimate D2E/DX2                !
 ! A34   A(21,19,29)           109.4447         estimate D2E/DX2                !
 ! A35   A(25,19,29)           109.6159         estimate D2E/DX2                !
 ! A36   A(18,20,33)           109.4688         estimate D2E/DX2                !
 ! A37   A(18,20,37)           109.4538         estimate D2E/DX2                !
 ! A38   A(18,20,41)           109.5263         estimate D2E/DX2                !
 ! A39   A(33,20,37)           109.5179         estimate D2E/DX2                !
 ! A40   A(33,20,41)           109.3387         estimate D2E/DX2                !
 ! A41   A(37,20,41)           109.5219         estimate D2E/DX2                !
 ! A42   A(19,21,22)           109.4365         estimate D2E/DX2                !
 ! A43   A(19,21,23)           109.4204         estimate D2E/DX2                !
 ! A44   A(19,21,24)           109.5377         estimate D2E/DX2                !
 ! A45   A(22,21,23)           109.4838         estimate D2E/DX2                !
 ! A46   A(22,21,24)           109.5486         estimate D2E/DX2                !
 ! A47   A(23,21,24)           109.4002         estimate D2E/DX2                !
 ! A48   A(19,25,26)           109.4814         estimate D2E/DX2                !
 ! A49   A(19,25,27)           109.405          estimate D2E/DX2                !
 ! A50   A(19,25,28)           109.4946         estimate D2E/DX2                !
 ! A51   A(26,25,27)           109.4399         estimate D2E/DX2                !
 ! A52   A(26,25,28)           109.4427         estimate D2E/DX2                !
 ! A53   A(27,25,28)           109.5638         estimate D2E/DX2                !
 ! A54   A(19,29,30)           109.44           estimate D2E/DX2                !
 ! A55   A(19,29,31)           109.4484         estimate D2E/DX2                !
 ! A56   A(19,29,32)           109.5344         estimate D2E/DX2                !
 ! A57   A(30,29,31)           109.522          estimate D2E/DX2                !
 ! A58   A(30,29,32)           109.4933         estimate D2E/DX2                !
 ! A59   A(31,29,32)           109.3891         estimate D2E/DX2                !
 ! A60   A(20,33,34)           109.4228         estimate D2E/DX2                !
 ! A61   A(20,33,35)           109.5506         estimate D2E/DX2                !
 ! A62   A(20,33,36)           109.4483         estimate D2E/DX2                !
 ! A63   A(34,33,35)           109.4168         estimate D2E/DX2                !
 ! A64   A(34,33,36)           109.6059         estimate D2E/DX2                !
 ! A65   A(35,33,36)           109.383          estimate D2E/DX2                !
 ! A66   A(20,37,38)           109.5083         estimate D2E/DX2                !
 ! A67   A(20,37,39)           109.4462         estimate D2E/DX2                !
 ! A68   A(20,37,40)           109.4687         estimate D2E/DX2                !
 ! A69   A(38,37,39)           109.4843         estimate D2E/DX2                !
 ! A70   A(38,37,40)           109.4394         estimate D2E/DX2                !
 ! A71   A(39,37,40)           109.4804         estimate D2E/DX2                !
 ! A72   A(20,41,42)           109.5128         estimate D2E/DX2                !
 ! A73   A(20,41,43)           109.5174         estimate D2E/DX2                !
 ! A74   A(20,41,44)           109.3803         estimate D2E/DX2                !
 ! A75   A(42,41,43)           109.3592         estimate D2E/DX2                !
 ! A76   A(42,41,44)           109.5707         estimate D2E/DX2                !
 ! A77   A(43,41,44)           109.4869         estimate D2E/DX2                !
 ! D1    D(6,1,2,3)             -0.0658         estimate D2E/DX2                !
 ! D2    D(6,1,2,8)            179.9979         estimate D2E/DX2                !
 ! D3    D(7,1,2,3)            179.9616         estimate D2E/DX2                !
 ! D4    D(7,1,2,8)              0.0253         estimate D2E/DX2                !
 ! D5    D(2,1,6,5)              0.2998         estimate D2E/DX2                !
 ! D6    D(2,1,6,11)          -179.7853         estimate D2E/DX2                !
 ! D7    D(7,1,6,5)           -179.7276         estimate D2E/DX2                !
 ! D8    D(7,1,6,11)             0.1873         estimate D2E/DX2                !
 ! D9    D(1,2,3,4)             -0.1436         estimate D2E/DX2                !
 ! D10   D(1,2,3,9)            179.9462         estimate D2E/DX2                !
 ! D11   D(8,2,3,4)            179.7927         estimate D2E/DX2                !
 ! D12   D(8,2,3,9)             -0.1176         estimate D2E/DX2                !
 ! D13   D(2,3,4,5)              0.1189         estimate D2E/DX2                !
 ! D14   D(2,3,4,12)          -179.8743         estimate D2E/DX2                !
 ! D15   D(9,3,4,5)           -179.9711         estimate D2E/DX2                !
 ! D16   D(9,3,4,12)             0.0357         estimate D2E/DX2                !
 ! D17   D(3,4,5,6)              0.1153         estimate D2E/DX2                !
 ! D18   D(3,4,5,10)          -179.9042         estimate D2E/DX2                !
 ! D19   D(12,4,5,6)          -179.8916         estimate D2E/DX2                !
 ! D20   D(12,4,5,10)            0.089          estimate D2E/DX2                !
 ! D21   D(3,4,12,13)           88.4795         estimate D2E/DX2                !
 ! D22   D(3,4,12,16)          -31.5705         estimate D2E/DX2                !
 ! D23   D(5,4,12,13)          -91.5136         estimate D2E/DX2                !
 ! D24   D(5,4,12,16)          148.4364         estimate D2E/DX2                !
 ! D25   D(4,5,6,1)             -0.3244         estimate D2E/DX2                !
 ! D26   D(4,5,6,11)           179.7606         estimate D2E/DX2                !
 ! D27   D(10,5,6,1)           179.6951         estimate D2E/DX2                !
 ! D28   D(10,5,6,11)           -0.22           estimate D2E/DX2                !
 ! D29   D(4,12,13,14)          30.9688         estimate D2E/DX2                !
 ! D30   D(4,12,13,15)        -148.916          estimate D2E/DX2                !
 ! D31   D(16,12,13,14)        150.8843         estimate D2E/DX2                !
 ! D32   D(16,12,13,15)        -29.0005         estimate D2E/DX2                !
 ! D33   D(4,12,16,17)          30.2065         estimate D2E/DX2                !
 ! D34   D(4,12,16,18)        -149.7538         estimate D2E/DX2                !
 ! D35   D(13,12,16,17)        -89.6467         estimate D2E/DX2                !
 ! D36   D(13,12,16,18)         90.393          estimate D2E/DX2                !
 ! D37   D(12,13,15,19)        151.5194         estimate D2E/DX2                !
 ! D38   D(14,13,15,19)        -28.3654         estimate D2E/DX2                !
 ! D39   D(13,15,19,21)        -58.9876         estimate D2E/DX2                !
 ! D40   D(13,15,19,25)         60.9529         estimate D2E/DX2                !
 ! D41   D(13,15,19,29)       -178.9739         estimate D2E/DX2                !
 ! D42   D(12,16,18,20)        149.2458         estimate D2E/DX2                !
 ! D43   D(17,16,18,20)        -30.7145         estimate D2E/DX2                !
 ! D44   D(16,18,20,33)        -59.8886         estimate D2E/DX2                !
 ! D45   D(16,18,20,37)         60.1564         estimate D2E/DX2                !
 ! D46   D(16,18,20,41)       -179.7584         estimate D2E/DX2                !
 ! D47   D(15,19,21,22)         59.8896         estimate D2E/DX2                !
 ! D48   D(15,19,21,23)        179.8527         estimate D2E/DX2                !
 ! D49   D(15,19,21,24)        -60.2247         estimate D2E/DX2                !
 ! D50   D(25,19,21,22)        -59.9694         estimate D2E/DX2                !
 ! D51   D(25,19,21,23)         59.9937         estimate D2E/DX2                !
 ! D52   D(25,19,21,24)        179.9163         estimate D2E/DX2                !
 ! D53   D(29,19,21,22)        179.8744         estimate D2E/DX2                !
 ! D54   D(29,19,21,23)        -60.1624         estimate D2E/DX2                !
 ! D55   D(29,19,21,24)         59.7601         estimate D2E/DX2                !
 ! D56   D(15,19,25,26)       -179.8212         estimate D2E/DX2                !
 ! D57   D(15,19,25,27)        -59.8939         estimate D2E/DX2                !
 ! D58   D(15,19,25,28)         60.1932         estimate D2E/DX2                !
 ! D59   D(21,19,25,26)        -59.8393         estimate D2E/DX2                !
 ! D60   D(21,19,25,27)         60.088          estimate D2E/DX2                !
 ! D61   D(21,19,25,28)       -179.8249         estimate D2E/DX2                !
 ! D62   D(29,19,25,26)         60.2121         estimate D2E/DX2                !
 ! D63   D(29,19,25,27)       -179.8606         estimate D2E/DX2                !
 ! D64   D(29,19,25,28)        -59.7736         estimate D2E/DX2                !
 ! D65   D(15,19,29,30)       -179.8324         estimate D2E/DX2                !
 ! D66   D(15,19,29,31)        -59.8032         estimate D2E/DX2                !
 ! D67   D(15,19,29,32)         60.121          estimate D2E/DX2                !
 ! D68   D(21,19,29,30)         60.1286         estimate D2E/DX2                !
 ! D69   D(21,19,29,31)       -179.8422         estimate D2E/DX2                !
 ! D70   D(21,19,29,32)        -59.918          estimate D2E/DX2                !
 ! D71   D(25,19,29,30)        -59.9341         estimate D2E/DX2                !
 ! D72   D(25,19,29,31)         60.095          estimate D2E/DX2                !
 ! D73   D(25,19,29,32)       -179.9808         estimate D2E/DX2                !
 ! D74   D(18,20,33,34)         59.8391         estimate D2E/DX2                !
 ! D75   D(18,20,33,35)        179.7913         estimate D2E/DX2                !
 ! D76   D(18,20,33,36)        -60.2822         estimate D2E/DX2                !
 ! D77   D(37,20,33,34)        -60.1667         estimate D2E/DX2                !
 ! D78   D(37,20,33,35)         59.7855         estimate D2E/DX2                !
 ! D79   D(37,20,33,36)        179.712          estimate D2E/DX2                !
 ! D80   D(41,20,33,34)        179.8239         estimate D2E/DX2                !
 ! D81   D(41,20,33,35)        -60.2238         estimate D2E/DX2                !
 ! D82   D(41,20,33,36)         59.7027         estimate D2E/DX2                !
 ! D83   D(18,20,37,38)         59.894          estimate D2E/DX2                !
 ! D84   D(18,20,37,39)        179.9173         estimate D2E/DX2                !
 ! D85   D(18,20,37,40)        -60.0883         estimate D2E/DX2                !
 ! D86   D(33,20,37,38)        179.9089         estimate D2E/DX2                !
 ! D87   D(33,20,37,39)        -60.0677         estimate D2E/DX2                !
 ! D88   D(33,20,37,40)         59.9267         estimate D2E/DX2                !
 ! D89   D(41,20,37,38)        -60.1939         estimate D2E/DX2                !
 ! D90   D(41,20,37,39)         59.8295         estimate D2E/DX2                !
 ! D91   D(41,20,37,40)        179.8239         estimate D2E/DX2                !
 ! D92   D(18,20,41,42)         59.9908         estimate D2E/DX2                !
 ! D93   D(18,20,41,43)        179.9073         estimate D2E/DX2                !
 ! D94   D(18,20,41,44)        -60.1009         estimate D2E/DX2                !
 ! D95   D(33,20,41,42)        -59.9588         estimate D2E/DX2                !
 ! D96   D(33,20,41,43)         59.9578         estimate D2E/DX2                !
 ! D97   D(33,20,41,44)        179.9496         estimate D2E/DX2                !
 ! D98   D(37,20,41,42)       -179.9657         estimate D2E/DX2                !
 ! D99   D(37,20,41,43)        -60.0491         estimate D2E/DX2                !
 ! D100  D(37,20,41,44)         59.9427         estimate D2E/DX2                !
 --------------------------------------------------------------------------------
 Trust Radius=3.00D-01 FncErr=1.00D-07 GrdErr=1.00D-06
 Number of steps in this run=    231 maximum allowed number of steps=    264.
 GradGradGradGradGradGradGradGradGradGradGradGradGradGradGradGradGradGrad

                          Input orientation:                          
 ---------------------------------------------------------------------
 Center     Atomic      Atomic             Coordinates (Angstroms)
 Number     Number       Type             X           Y           Z
 ---------------------------------------------------------------------
      1          6           0        0.893903   -3.234783   -0.190816
      2          6           0        1.956732   -2.434854    0.252175
      3          6           0        1.796309   -1.046810    0.343202
      4          6           0        0.575606   -0.456146   -0.010856
      5          6           0       -0.487174   -1.255268   -0.454302
      6          6           0       -0.329163   -2.645144   -0.541078
      7          1           0        1.017485   -4.296195   -0.260775
      8          1           0        2.891313   -2.886325    0.519760
      9          1           0        2.607597   -0.438443    0.682038
     10          1           0       -1.419863   -0.803497   -0.726423
     11         17           0       -1.667388   -3.650168   -1.092561
     12          7           0        0.413068    1.002515    0.083892
     13          6           0        0.837908    1.621709   -1.179122
     14          8           0        0.701370    0.997730   -2.263326
     15          8           0        1.408404    2.932039   -1.174079
     16          6           0        1.237667    1.515028    1.186669
     17          8           0        2.306606    0.929794    1.497899
     18          8           0        0.821509    2.680051    1.905545
     19          6           0        2.307738    3.063664   -2.279157
     20          6           0        1.278570    2.597237    3.258245
     21          6           0        3.415972    1.997736   -2.171447
     22          1           0        2.974566    1.022489   -2.183014
     23          1           0        4.085906    2.096090   -2.999888
     24          1           0        3.956955    2.135023   -1.258702
     25          6           0        1.531152    2.865692   -3.595109
     26          1           0        2.201589    2.960478   -4.422485
     27          1           0        1.089339    1.890010   -3.604260
     28          1           0        0.763610    3.607330   -3.671840
     29          6           0        2.942581    4.467424   -2.259352
     30          1           0        3.613242    4.566887   -3.087853
     31          1           0        2.173422    5.207172   -2.331321
     32          1           0        3.482030    4.603446   -1.344748
     33          6           0        0.685477    1.343553    3.924027
     34          1           0        0.997013    0.474381    3.386010
     35          1           0        1.029535    1.278346    4.935142
     36          1           0       -0.382330    1.407253    3.915769
     37          6           0        2.816165    2.510551    3.275740
     38          1           0        3.228448    3.381759    2.811265
     39          1           0        3.158536    2.449967    4.289276
     40          1           0        3.129813    1.640527    2.741175
     41          6           0        0.824778    3.849016    4.032534
     42          1           0       -0.243399    3.908770    4.020799
     43          1           0        1.164890    3.786250    5.043373
     44          1           0        1.237945    4.721974    3.570199
 ---------------------------------------------------------------------
                    Distance matrix (angstroms):
                    1          2          3          4          5
     1  C    0.000000
     2  C    1.402046   0.000000
     3  C    2.426260   1.400246   0.000000
     4  C    2.802592   2.427340   1.401555   0.000000
     5  C    2.428019   2.804141   2.427707   1.401692   0.000000
     6  C    1.402229   2.428741   2.802543   2.427231   1.401518
     7  H    1.070870   2.147066   3.395564   3.873459   3.398336
     8  H    2.148485   1.071854   2.148028   3.398503   3.875992
     9  H    3.393838   2.143376   1.069162   2.146952   3.396480
    10  H    3.398755   3.875612   3.398096   2.148158   1.071474
    11  Cl   2.746980   4.052104   4.564656   4.050048   2.745146
    12  N    4.273331   3.771833   2.486027   1.470744   2.489513
    13  C    4.956349   4.444781   3.218228   2.398151   3.249339
    14  O    4.716623   4.436926   3.488986   2.683876   3.124293
    15  O    6.265876   5.580179   4.275962   3.677830   4.652401
    16  C    4.957453   4.122124   2.754366   2.399567   3.652726
    17  O    4.710752   3.604871   2.345355   2.682076   4.048554
    18  O    6.275765   5.494053   4.156999   3.683584   4.771610
    19  C    6.784581   6.063377   4.902481   4.531505   5.458462
    20  C    6.786490   5.900703   4.695168   4.528171   5.634062
    21  C    6.137017   5.258438   4.268023   4.330978   5.363317
    22  H    5.140270   4.349638   3.471607   3.558039   4.490018
    23  H    6.818942   5.969820   5.127994   5.269765   6.214874
    24  H    6.273554   5.212237   4.166359   4.439008   5.647248
    25  C    7.015061   6.563421   5.557721   4.979412   5.560631
    26  H    7.615663   7.142969   6.239742   5.812023   6.383450
    27  H    6.160625   5.859088   4.970631   4.322143   4.722330
    28  H    7.677826   7.302699   6.232820   5.472658   5.963377
    29  C    8.234070   7.410877   6.204353   5.907609   6.911630
    30  H    8.755209   7.932476   6.825465   6.627669   7.592528
    31  H    8.802587   8.069818   6.812311   6.325405   7.236374
    32  H    8.334734   7.376609   6.133206   5.985485   7.132461
    33  C    6.159264   5.419866   4.446357   4.328313   5.224821
    34  H    5.153854   4.382423   3.494507   3.547135   4.465702
    35  H    6.830971   6.047952   5.203864   5.260933   6.145382
    36  H    6.327820   5.801286   4.850993   4.450650   5.118353
    37  C    6.980040   5.859830   4.721727   4.962168   6.245531
    38  H    7.631593   6.480678   5.268261   5.452656   6.780250
    39  H    7.583942   6.450116   5.445605   5.797255   7.037152
    40  H    6.112651   4.917313   3.840610   4.300429   5.628437
    41  C    8.247525   7.420206   6.206783   5.911473   6.921462
    42  H    8.370275   7.699654   6.499454   5.998126   6.837635
    43  H    8.761568   7.892068   6.771172   6.624984   7.640069
    44  H    8.807586   7.921245   6.633562   6.330527   7.409458
                    6          7          8          9         10
     6  C    0.000000
     7  H    2.148953   0.000000
     8  H    3.399266   2.471477   0.000000
     9  H    3.871704   4.277803   2.469606   0.000000
    10  H    2.148405   4.284440   4.947462   4.282226   0.000000
    11  Cl   1.762117   2.884053   4.895385   5.633815   2.880775
    12  N    3.774508   5.344197   4.631928   2.692600   2.697763
    13  C    4.469361   5.991426   5.236893   3.292407   3.344262
    14  O    4.159167   5.668843   5.256168   3.790971   3.179012
    15  O    5.875780   7.296184   6.238708   4.030308   4.706774
    16  C    4.769392   5.992820   4.748813   2.438732   4.012225
    17  O    4.887216   5.662660   3.982638   1.621203   4.673166
    18  O    5.972244   7.307486   6.098281   3.796325   4.907760
    19  C    6.524159   7.739906   6.601278   4.596014   5.591148
    20  C    6.670998   7.744099   6.337957   4.197441   5.892717
    21  C    6.183888   7.001211   5.601063   3.838074   5.772374
    22  H    5.202125   5.984443   4.752972   3.236898   4.976634
    23  H    6.929493   7.601266   6.216063   4.708060   6.624933
    24  H    6.460324   7.141211   5.432537   3.494276   6.150479
    25  C    6.569413   7.916707   7.201936   5.510901   5.513692
    26  H    7.272759   8.448741   7.686781   6.146028   6.398695
    27  H    5.653570   7.032296   6.562624   5.108733   4.672582
    28  H    7.077376   8.611940   8.016494   6.222927   5.735716
    29  C    8.015322   9.192459   7.861534   5.729880   7.011661
    30  H    8.604766   9.658392   8.311824   6.346395   7.729782
    31  H    8.433669   9.794760   8.610966   6.414188   7.184395
    32  H    8.228798   9.297987   7.740930   5.503920   7.324337
    33  C    6.072590   7.030615   5.860599   4.168999   5.537957
    34  H    5.187696   6.004819   4.806050   3.276995   4.938255
    35  H    6.872322   7.620578   6.348725   4.850417   6.510525
    36  H    6.023972   7.206409   6.378435   4.775278   5.245364
    37  C    7.144395   7.878704   6.060309   3.932857   6.704040
    38  H    7.760048   8.560184   6.682330   4.417353   7.185986
    39  H    7.839421   8.414141   6.538860   4.653882   7.530206
    40  H    6.411292   6.979849   5.048164   2.972351   6.220694
    41  C    8.026432   9.209457   7.872419   5.725957   7.023672
    42  H    7.985729   9.340404   8.261781   6.178493   6.791587
    43  H    8.647607   9.668590   8.244203   6.241049   7.812635
    44  H    8.580958   9.800629   8.362119   6.070200   7.487037
                   11         12         13         14         15
    11  Cl   0.000000
    12  N    5.230660   0.000000
    13  C    5.837524   1.469385   0.000000
    14  O    5.346463   2.364862   1.258368   0.000000
    15  O    7.265851   2.509232   1.429145   2.329786   0.000000
    16  C    6.349291   1.469269   2.401698   3.529543   2.758659
    17  O    6.593873   2.364358   3.130857   4.090014   3.457633
    18  O    7.433366   2.509855   3.261215   4.497124   3.145160
    19  C    7.892097   3.663620   2.334462   2.617012   1.430848
    20  C    8.163226   3.656330   4.564654   5.777485   4.446847
    21  C    7.674853   3.885157   2.787924   2.894394   2.428579
    22  H    6.676118   3.420603   2.435605   2.274749   2.667807
    23  H    8.352112   4.918876   3.753627   3.633731   3.346850
    24  H    8.070271   3.955283   3.162005   3.591871   2.671611
    25  C    7.677880   4.272772   2.804474   2.439562   2.425047
    26  H    8.352127   5.228753   3.764483   3.281007   3.343963
    27  H    6.678455   3.853239   2.452855   1.656740   2.663344
    28  H    8.076739   4.584044   3.187766   2.966108   2.666568
    29  C    9.407897   4.888232   3.700627   4.130595   2.426710
    30  H    9.969265   5.745069   4.474350   4.679500   3.346128
    31  H    9.733387   5.158608   3.995836   4.459928   2.664712
    32  H    9.731508   4.942290   3.988680   4.645109   2.668830
    33  C    7.459181   3.864861   5.112997   6.197030   5.388562
    34  H    6.645942   3.394687   4.709788   5.681223   5.196512
    35  H    8.239955   4.898035   6.126895   7.211406   6.340412
    36  H    7.232722   3.934432   5.243366   6.286758   5.606983
    37  C    8.782868   4.270473   4.954729   6.119006   4.686186
    38  H    9.415788   4.585382   4.973494   6.149893   4.404291
    39  H    9.458614   5.226660   5.997892   7.147255   5.757049
    40  H    8.105685   3.853429   4.541135   5.599603   4.467714
    41  C    9.418878   4.885064   5.667665   6.912519   5.318862
    42  H    9.236436   4.937257   5.782651   6.989776   5.537980
    43  H   10.048473   5.736800   6.596332   7.834446   6.280581
    44  H   10.013743   5.164216   5.685747   6.941752   5.073569
                   16         17         18         19         20
    16  C    0.000000
    17  O    1.257774   0.000000
    18  O    1.430821   2.331327   0.000000
    19  C    3.944018   4.338152   4.457328   0.000000
    20  C    2.337579   2.633637   1.430231   5.651510   0.000000
    21  C    4.031744   3.979358   4.880436   1.541424   5.865956
    22  H    3.822849   3.742177   4.909122   2.149488   5.912997
    23  H    5.096799   4.975565   5.921197   2.148845   6.877246
    24  H    3.709280   3.431484   4.487821   2.150260   5.271641
    25  C    4.977532   5.503432   5.549347   1.540782   6.863259
    26  H    5.872059   6.259845   6.482841   2.148434   7.744515
    27  H    4.807870   5.332521   5.572598   2.148920   6.901446
    28  H    5.311079   6.022976   5.654239   2.149295   7.022218
    29  C    4.847518   5.199637   5.004000   1.540766   6.058912
    30  H    5.764437   5.997072   6.023948   2.148955   7.042952
    31  H    5.184960   5.742528   5.115178   2.148346   6.233440
    32  H    4.580781   4.791449   4.619764   2.150118   5.483398
    33  C    2.797758   2.947092   2.424665   6.638525   1.538424
    34  H    2.444987   2.342519   2.662246   6.365257   2.145254
    35  H    3.761700   3.683346   3.344624   7.541040   2.147900
    36  H    3.175531   3.647525   2.666504   6.953940   2.146389
    37  C    2.801239   2.432933   2.425864   5.605472   1.540136
    38  H    3.176036   2.930334   2.665723   5.182788   2.148788
    39  H    3.766964   3.290668   3.346163   6.651677   2.149183
    40  H    2.452031   1.651831   2.665925   5.282505   2.147035
    41  C    3.703637   4.140296   2.427050   6.530957   1.540260
    42  H    3.994477   4.662816   2.667973   6.849230   2.148953
    43  H    4.476373   4.693958   3.344780   7.446320   2.147873
    44  H    3.995712   4.451640   2.667197   6.173283   2.147900
                   21         22         23         24         25
    21  C    0.000000
    22  H    1.070551   0.000000
    23  H    1.069953   1.747850   0.000000
    24  H    1.069865   1.748477   1.746388   0.000000
    25  C    2.516487   2.734017   2.733741   3.446330   0.000000
    26  H    2.732905   3.060804   2.514278   3.711092   1.069121
    27  H    2.734553   2.515276   3.063845   3.712801   1.071091
    28  H    3.446302   3.712994   3.711201   4.264782   1.070064
    29  C    2.516185   3.445929   2.734741   2.733194   2.518317
    30  H    2.734823   3.713408   2.517139   3.062334   2.736142
    31  H    3.445283   4.263261   3.712602   3.710741   2.737189
    32  H    2.734505   3.712608   3.064472   2.515167   3.448164
    33  C    6.711063   6.529851   7.750473   6.179779   7.718127
    34  H    6.249584   5.935079   7.276736   5.752594   7.398628
    35  H    7.531016   7.383546   8.542530   6.904157   8.691172
    36  H    7.199303   6.972227   8.262321   6.792216   7.886809
    37  C    5.504053   5.660161   6.416193   4.690799   6.998997
    38  H    5.174756   5.529325   6.013125   4.318530   6.647463
    39  H    6.481646   6.630391   7.356437   5.613976   8.061311
    40  H    4.933897   4.965250   5.837932   4.114329   6.648702
    41  C    6.973586   7.158483   7.947494   6.383219   7.723136
    42  H    7.442242   7.561297   8.445042   6.975836   7.889177
    43  H    7.766581   7.945689   8.722559   7.087901   8.695111
    44  H    6.718019   7.057018   7.627070   6.115850   7.407658
                   26         27         28         29         30
    26  H    0.000000
    27  H    1.747139   0.000000
    28  H    1.746330   1.749244   0.000000
    29  C    2.738448   3.447657   2.735470   0.000000
    30  H    2.520824   3.715162   3.063036   1.070557   0.000000
    31  H    3.069429   3.714724   2.518741   1.069585   1.747967
    32  H    3.716360   4.265336   3.714486   1.070518   1.748419
    33  C    8.635815   7.558891   7.926411   7.286101   8.253978
    34  H    8.282769   7.132769   7.725483   7.183295   8.093464
    35  H    9.579586   8.561489   8.920483   8.098809   9.047568
    36  H    8.866545   7.677871   7.982815   7.651915   8.660173
    37  C    7.735813   7.120492   7.326989   5.872187   6.734921
    38  H    7.318405   6.925320   6.939521   5.193414   6.029277
    39  H    8.779018   8.179428   8.393719   6.855750   7.688312
    40  H    7.343153   6.670106   7.112945   5.747319   6.540249
    41  C    8.612343   7.888493   7.708407   6.667485   7.680546
    42  H    8.841169   7.999569   7.764124   7.064196   8.114169
    43  H    9.558196   8.853417   8.726281   7.546786   8.527641
    44  H    8.241024   7.714594   7.342653   6.079001   7.070767
                   31         32         33         34         35
    31  H    0.000000
    32  H    1.746501   0.000000
    33  C    7.501394   6.797617   0.000000
    34  H    7.514727   6.753114   1.068633   0.000000
    35  H    8.339403   7.517183   1.070038   1.745631   0.000000
    36  H    7.745798   7.267872   1.069737   1.747421   1.746168
    37  C    6.254920   5.115906   2.514357   2.732665   2.732030
    38  H    5.558003   4.339270   3.443722   3.709781   3.710851
    39  H    7.239125   6.040227   2.733785   3.064476   2.514455
    40  H    6.274222   5.059418   2.731687   2.514865   3.058731
    41  C    6.645455   6.045272   2.511678   3.440322   2.732210
    42  H    6.919270   6.568903   2.729930   3.706292   3.061946
    43  H    7.577748   6.844344   2.729385   3.707224   2.513885
    44  H    5.994870   5.404319   3.441532   4.258405   3.710132
                   36         37         38         39         40
    36  H    0.000000
    37  C    3.443439   0.000000
    38  H    4.261023   1.069915   0.000000
    39  H    3.710053   1.071515   1.748611   0.000000
    40  H    3.710692   1.068212   1.745432   1.747180   0.000000
    41  C    2.726344   2.515919   2.736322   2.733071   3.443577
    42  H    2.507572   3.445440   3.714086   3.711246   4.261564
    43  H    3.053687   2.734711   3.066626   2.515738   3.710144
    44  H    3.705682   2.732742   2.516796   3.060679   3.709685
                   41         42         43         44
    41  C    0.000000
    42  H    1.069911   0.000000
    43  H    1.068368   1.744690   0.000000
    44  H    1.070755   1.748919   1.746757   0.000000
 Stoichiometry    C16H22ClNO4
 Framework group  C1[X(C16H22ClNO4)]
 Deg. of freedom   126
 Full point group                 C1      NOp   1
 Largest Abelian subgroup         C1      NOp   1
 Largest concise Abelian subgroup C1      NOp   1
                         Standard orientation:                         
 ---------------------------------------------------------------------
 Center     Atomic      Atomic             Coordinates (Angstroms)
 Number     Number       Type             X           Y           Z
 ---------------------------------------------------------------------
      1          6           0        3.760726   -0.619974    1.321679
      2          6           0        2.551499   -0.708782    2.025679
      3          6           0        1.336298   -0.531106    1.353070
      4          6           0        1.327659   -0.261657   -0.022313
      5          6           0        2.536259   -0.172231   -0.726608
      6          6           0        3.752880   -0.354780   -0.055222
      7          1           0        4.689736   -0.755353    1.836825
      8          1           0        2.558329   -0.911557    3.078155
      9          1           0        0.415102   -0.600031    1.891360
     10          1           0        2.529644    0.035284   -1.777774
     11         17           0        5.271874   -0.248572   -0.942033
     12          7           0        0.048722   -0.073093   -0.723635
     13          6           0       -0.337248    1.343162   -0.657740
     14          8           0        0.548715    2.236016   -0.620700
     15          8           0       -1.719666    1.704796   -0.633303
     16          6           0       -0.985532   -0.896794   -0.082866
     17          8           0       -0.917084   -1.148160    1.147632
     18          8           0       -2.069361   -1.412506   -0.861713
     19          6           0       -1.875344    2.942600    0.067361
     20          6           0       -2.501381   -2.661155   -0.314179
     21          6           0       -1.336488    2.792978    1.503758
     22          1           0       -0.299644    2.528663    1.469545
     23          1           0       -1.451393    3.720167    2.025214
     24          1           0       -1.884221    2.028306    2.013538
     25          6           0       -1.086811    4.045603   -0.664490
     26          1           0       -1.198956    4.971096   -0.141131
     27          1           0       -0.050047    3.778800   -0.698742
     28          1           0       -1.462526    4.151997   -1.660761
     29          6           0       -3.368389    3.319927    0.116354
     30          1           0       -3.484535    4.247523    0.638053
     31          1           0       -3.743043    3.421073   -0.880348
     32          1           0       -3.914914    2.552949    0.625337
     33          6           0       -1.332787   -3.661525   -0.334102
     34          1           0       -0.524134   -3.274970    0.247818
     35          1           0       -1.653595   -4.595170    0.078657
     36          1           0       -1.009564   -3.811609   -1.342735
     37          6           0       -2.972770   -2.449390    1.136671
     38          1           0       -3.784433   -1.752446    1.150511
     39          1           0       -3.297757   -3.384671    1.546277
     40          1           0       -2.164977   -2.066003    1.721106
     41          6           0       -3.664045   -3.218151   -1.157014
     42          1           0       -3.336254   -3.365768   -2.164721
     43          1           0       -3.985580   -4.151652   -0.748844
     44          1           0       -4.478140   -2.522763   -1.142880
 ---------------------------------------------------------------------
 Rotational constants (GHZ):      0.2933651      0.1870537      0.1324423
 Standard basis: 6-311+G(d,p) (5D, 7F)
 There are   646 symmetry adapted cartesian basis functions of A   symmetry.
 There are   624 symmetry adapted basis functions of A   symmetry.
   624 basis functions,   985 primitive gaussians,   646 cartesian basis functions
    87 alpha electrons       87 beta electrons
       nuclear repulsion energy      2073.4699964665 Hartrees.
 NAtoms=   44 NActive=   44 NUniq=   44 SFac= 1.00D+00 NAtFMM=   60 NAOKFM=F Big=F
 Integral buffers will be    131072 words long.
 Raffenetti 2 integral format.
 Two-electron integral symmetry is turned on.
 One-electron integrals computed using PRISM.
 NBasis=   624 RedAO= T EigKep=  1.18D-06  NBF=   624
 NBsUse=   623 1.00D-06 EigRej=  6.28D-07 NBFU=   623
 ExpMin= 4.38D-02 ExpMax= 1.06D+05 ExpMxC= 3.62D+03 IAcc=2 IRadAn=         4 AccDes= 0.00D+00
 Harris functional with IExCor=  402 and IRadAn=       4 diagonalized for initial guess.
 HarFok:  IExCor=  402 AccDes= 0.00D+00 IRadAn=         4 IDoV= 1 UseB2=F ITyADJ=14
 ICtDFT=  3500011 ScaDFX=  1.000000  1.000000  1.000000  1.000000
 FoFCou: FMM=F IPFlag=           0 FMFlag=      100000 FMFlg1=           0
         NFxFlg=           0 DoJE=T BraDBF=F KetDBF=T FulRan=T
         wScrn=  0.000000 ICntrl=     500 IOpCl=  0 I1Cent=   200000004 NGrid=           0
         NMat0=    1 NMatS0=      1 NMatT0=    0 NMatD0=    1 NMtDS0=    0 NMtDT0=    0
 Petite list used in FoFCou.
 Requested convergence on RMS density matrix=1.00D-08 within 128 cycles.
 Requested convergence on MAX density matrix=1.00D-06.
 Requested convergence on             energy=1.00D-06.
 No special actions if energy rises.
 SCF Done:  E(RB3LYP) =  -1438.99657195     A.U. after   18 cycles
            NFock= 18  Conv=0.82D-09     -V/T= 2.0033

 **********************************************************************

            Population analysis using the SCF density.

 **********************************************************************

 Orbital symmetries:
       Occupied  (A) (A) (A) (A) (A) (A) (A) (A) (A) (A) (A) (A)
                 (A) (A) (A) (A) (A) (A) (A) (A) (A) (A) (A) (A)
                 (A) (A) (A) (A) (A) (A) (A) (A) (A) (A) (A) (A)
                 (A) (A) (A) (A) (A) (A) (A) (A) (A) (A) (A) (A)
                 (A) (A) (A) (A) (A) (A) (A) (A) (A) (A) (A) (A)
                 (A) (A) (A) (A) (A) (A) (A) (A) (A) (A) (A) (A)
                 (A) (A) (A) (A) (A) (A) (A) (A) (A) (A) (A) (A)
                 (A) (A) (A)
       Virtual   (A) (A) (A) (A) (A) (A) (A) (A) (A) (A) (A) (A)
                 (A) (A) (A) (A) (A) (A) (A) (A) (A) (A) (A) (A)
                 (A) (A) (A) (A) (A) (A) (A) (A) (A) (A) (A) (A)
                 (A) (A) (A) (A) (A) (A) (A) (A) (A) (A) (A) (A)
                 (A) (A) (A) (A) (A) (A) (A) (A) (A) (A) (A) (A)
                 (A) (A) (A) (A) (A) (A) (A) (A) (A) (A) (A) (A)
                 (A) (A) (A) (A) (A) (A) (A) (A) (A) (A) (A) (A)
                 (A) (A) (A) (A) (A) (A) (A) (A) (A) (A) (A) (A)
                 (A) (A) (A) (A) (A) (A) (A) (A) (A) (A) (A) (A)
                 (A) (A) (A) (A) (A) (A) (A) (A) (A) (A) (A) (A)
                 (A) (A) (A) (A) (A) (A) (A) (A) (A) (A) (A) (A)
                 (A) (A) (A) (A) (A) (A) (A) (A) (A) (A) (A) (A)
                 (A) (A) (A) (A) (A) (A) (A) (A) (A) (A) (A) (A)
                 (A) (A) (A) (A) (A) (A) (A) (A) (A) (A) (A) (A)
                 (A) (A) (A) (A) (A) (A) (A) (A) (A) (A) (A) (A)
                 (A) (A) (A) (A) (A) (A) (A) (A) (A) (A) (A) (A)
                 (A) (A) (A) (A) (A) (A) (A) (A) (A) (A) (A) (A)
                 (A) (A) (A) (A) (A) (A) (A) (A) (A) (A) (A) (A)
                 (A) (A) (A) (A) (A) (A) (A) (A) (A) (A) (A) (A)
                 (A) (A) (A) (A) (A) (A) (A) (A) (A) (A) (A) (A)
                 (A) (A) (A) (A) (A) (A) (A) (A) (A) (A) (A) (A)
                 (A) (A) (A) (A) (A) (A) (A) (A) (A) (A) (A) (A)
                 (A) (A) (A) (A) (A) (A) (A) (A) (A) (A) (A) (A)
                 (A) (A) (A) (A) (A) (A) (A) (A) (A) (A) (A) (A)
                 (A) (A) (A) (A) (A) (A) (A) (A) (A) (A) (A) (A)
                 (A) (A) (A) (A) (A) (A) (A) (A) (A) (A) (A) (A)
                 (A) (A) (A) (A) (A) (A) (A) (A) (A) (A) (A) (A)
                 (A) (A) (A) (A) (A) (A) (A) (A) (A) (A) (A) (A)
                 (A) (A) (A) (A) (A) (A) (A) (A) (A) (A) (A) (A)
                 (A) (A) (A) (A) (A) (A) (A) (A) (A) (A) (A) (A)
                 (A) (A) (A) (A) (A) (A) (A) (A) (A) (A) (A) (A)
                 (A) (A) (A) (A) (A) (A) (A) (A) (A) (A) (A) (A)
                 (A) (A) (A) (A) (A) (A) (A) (A) (A) (A) (A) (A)
                 (A) (A) (A) (A) (A) (A) (A) (A) (A) (A) (A) (A)
                 (A) (A) (A) (A) (A) (A) (A) (A) (A) (A) (A) (A)
                 (A) (A) (A) (A) (A) (A) (A) (A) (A) (A) (A) (A)
                 (A) (A) (A) (A) (A) (A) (A) (A) (A) (A) (A) (A)
                 (A) (A) (A) (A) (A) (A) (A) (A) (A) (A) (A) (A)
                 (A) (A) (A) (A) (A) (A) (A) (A) (A) (A) (A) (A)
                 (A) (A) (A) (A) (A) (A) (A) (A) (A) (A) (A) (A)
                 (A) (A) (A) (A) (A) (A) (A) (A) (A) (A) (A) (A)
                 (A) (A) (A) (A) (A) (A) (A) (A) (A) (A) (A) (A)
                 (A) (A) (A) (A) (A) (A) (A) (A) (A) (A) (A) (A)
                 (A) (A) (A) (A) (A) (A) (A) (A) (A) (A) (A) (A)
                 (A) (A) (A) (A) (A) (A) (A) (A)
 The electronic state is 1-A.
 Alpha  occ. eigenvalues -- -101.55926 -19.19292 -19.18961 -19.14745 -19.13429
 Alpha  occ. eigenvalues --  -14.40936 -10.38385 -10.37222 -10.24971 -10.24945
 Alpha  occ. eigenvalues --  -10.24549 -10.24297 -10.20142 -10.19568 -10.19204
 Alpha  occ. eigenvalues --  -10.17777 -10.16609 -10.16393 -10.16344 -10.15827
 Alpha  occ. eigenvalues --  -10.13836 -10.13228  -9.47358  -7.23828  -7.22837
 Alpha  occ. eigenvalues --   -7.22808  -1.13217  -1.11495  -1.05266  -1.03612
 Alpha  occ. eigenvalues --   -0.97200  -0.89661  -0.84384  -0.81646  -0.81174
 Alpha  occ. eigenvalues --   -0.76862  -0.74696  -0.71349  -0.70838  -0.70387
 Alpha  occ. eigenvalues --   -0.69735  -0.67273  -0.66254  -0.63051  -0.61123
 Alpha  occ. eigenvalues --   -0.59641  -0.56435  -0.53386  -0.53267  -0.52018
 Alpha  occ. eigenvalues --   -0.51568  -0.49590  -0.49102  -0.48883  -0.48148
 Alpha  occ. eigenvalues --   -0.46942  -0.46355  -0.45970  -0.45234  -0.45137
 Alpha  occ. eigenvalues --   -0.43969  -0.43113  -0.42361  -0.41152  -0.41056
 Alpha  occ. eigenvalues --   -0.40899  -0.40266  -0.39825  -0.39398  -0.38870
 Alpha  occ. eigenvalues --   -0.38657  -0.38392  -0.37203  -0.36998  -0.36395
 Alpha  occ. eigenvalues --   -0.36114  -0.34835  -0.34493  -0.34002  -0.32747
 Alpha  occ. eigenvalues --   -0.32221  -0.31164  -0.30656  -0.27923  -0.27527
 Alpha  occ. eigenvalues --   -0.26862  -0.25374
 Alpha virt. eigenvalues --   -0.07284  -0.04260  -0.03609  -0.02820  -0.00471
 Alpha virt. eigenvalues --    0.00213   0.00685   0.01182   0.01792   0.02563
 Alpha virt. eigenvalues --    0.02920   0.03233   0.03286   0.03523   0.04285
 Alpha virt. eigenvalues --    0.04683   0.04889   0.04941   0.05610   0.05905
 Alpha virt. eigenvalues --    0.06000   0.06074   0.06243   0.06927   0.07436
 Alpha virt. eigenvalues --    0.07705   0.07840   0.08144   0.08861   0.09055
 Alpha virt. eigenvalues --    0.09593   0.09659   0.10064   0.10163   0.10642
 Alpha virt. eigenvalues --    0.11041   0.11283   0.11414   0.11706   0.11949
 Alpha virt. eigenvalues --    0.12311   0.12755   0.13173   0.13541   0.13738
 Alpha virt. eigenvalues --    0.13984   0.14286   0.14513   0.15004   0.15199
 Alpha virt. eigenvalues --    0.15275   0.15580   0.16314   0.16630   0.16711
 Alpha virt. eigenvalues --    0.17296   0.17822   0.18025   0.18269   0.18488
 Alpha virt. eigenvalues --    0.18694   0.18836   0.19187   0.19460   0.19850
 Alpha virt. eigenvalues --    0.20134   0.20233   0.20669   0.20891   0.21261
 Alpha virt. eigenvalues --    0.21411   0.21740   0.22084   0.22314   0.22402
 Alpha virt. eigenvalues --    0.22544   0.22853   0.23355   0.23463   0.24115
 Alpha virt. eigenvalues --    0.24217   0.24382   0.24586   0.25194   0.25338
 Alpha virt. eigenvalues --    0.25540   0.26063   0.26172   0.26377   0.26549
 Alpha virt. eigenvalues --    0.26820   0.27058   0.27323   0.27648   0.27799
 Alpha virt. eigenvalues --    0.28392   0.28511   0.29224   0.29475   0.30057
 Alpha virt. eigenvalues --    0.30436   0.31056   0.31276   0.31388   0.31624
 Alpha virt. eigenvalues --    0.31821   0.32214   0.32492   0.33027   0.33744
 Alpha virt. eigenvalues --    0.34793   0.34849   0.35417   0.35747   0.36302
 Alpha virt. eigenvalues --    0.36569   0.37354   0.37546   0.37714   0.38428
 Alpha virt. eigenvalues --    0.38960   0.39740   0.40551   0.40774   0.41283
 Alpha virt. eigenvalues --    0.42097   0.42881   0.43149   0.43891   0.44562
 Alpha virt. eigenvalues --    0.44974   0.45437   0.45908   0.46195   0.46433
 Alpha virt. eigenvalues --    0.47031   0.48017   0.48154   0.48998   0.49467
 Alpha virt. eigenvalues --    0.49990   0.51095   0.51461   0.52121   0.52335
 Alpha virt. eigenvalues --    0.52744   0.53213   0.53799   0.54227   0.54527
 Alpha virt. eigenvalues --    0.55218   0.55839   0.56357   0.57254   0.58174
 Alpha virt. eigenvalues --    0.58330   0.58831   0.60006   0.60300   0.60904
 Alpha virt. eigenvalues --    0.62502   0.62597   0.62991   0.63212   0.63954
 Alpha virt. eigenvalues --    0.64862   0.65318   0.65617   0.66337   0.66722
 Alpha virt. eigenvalues --    0.66873   0.67351   0.68465   0.68813   0.69317
 Alpha virt. eigenvalues --    0.69492   0.69658   0.70093   0.70628   0.71659
 Alpha virt. eigenvalues --    0.71964   0.72173   0.72791   0.73552   0.73654
 Alpha virt. eigenvalues --    0.74126   0.74523   0.74957   0.75174   0.75855
 Alpha virt. eigenvalues --    0.76443   0.76615   0.77979   0.78408   0.78647
 Alpha virt. eigenvalues --    0.78814   0.80127   0.80667   0.81278   0.82807
 Alpha virt. eigenvalues --    0.83286   0.83571   0.84902   0.85819   0.86081
 Alpha virt. eigenvalues --    0.86693   0.86847   0.87533   0.87970   0.89278
 Alpha virt. eigenvalues --    0.90366   0.91134   0.91817   0.92622   0.93601
 Alpha virt. eigenvalues --    0.94587   0.94727   0.95800   0.96585   0.97626
 Alpha virt. eigenvalues --    0.98252   0.99119   0.99780   1.01329   1.02705
 Alpha virt. eigenvalues --    1.03428   1.03736   1.04523   1.05606   1.05791
 Alpha virt. eigenvalues --    1.07305   1.07661   1.08507   1.09122   1.10163
 Alpha virt. eigenvalues --    1.12322   1.13916   1.14288   1.16426   1.17588
 Alpha virt. eigenvalues --    1.18554   1.19476   1.21040   1.21393   1.22236
 Alpha virt. eigenvalues --    1.23248   1.25008   1.25728   1.26149   1.27429
 Alpha virt. eigenvalues --    1.27615   1.29151   1.29568   1.30132   1.31584
 Alpha virt. eigenvalues --    1.34042   1.34793   1.35505   1.38469   1.38934
 Alpha virt. eigenvalues --    1.39964   1.42632   1.43394   1.43933   1.45180
 Alpha virt. eigenvalues --    1.45760   1.46624   1.46833   1.47291   1.48124
 Alpha virt. eigenvalues --    1.49032   1.49358   1.50130   1.50513   1.50931
 Alpha virt. eigenvalues --    1.50984   1.51958   1.52731   1.52840   1.53400
 Alpha virt. eigenvalues --    1.54802   1.55052   1.55541   1.55765   1.56439
 Alpha virt. eigenvalues --    1.58104   1.58776   1.59382   1.60256   1.60652
 Alpha virt. eigenvalues --    1.61182   1.61717   1.63189   1.63460   1.64108
 Alpha virt. eigenvalues --    1.64487   1.65833   1.66260   1.67526   1.68282
 Alpha virt. eigenvalues --    1.68408   1.68804   1.69459   1.69870   1.71188
 Alpha virt. eigenvalues --    1.72058   1.72702   1.73196   1.74833   1.75994
 Alpha virt. eigenvalues --    1.76422   1.77315   1.78118   1.78246   1.78692
 Alpha virt. eigenvalues --    1.79524   1.80414   1.82688   1.84729   1.85331
 Alpha virt. eigenvalues --    1.86424   1.86840   1.87513   1.88207   1.88585
 Alpha virt. eigenvalues --    1.90990   1.92059   1.92865   1.93574   1.94193
 Alpha virt. eigenvalues --    1.94563   1.95285   1.95827   1.96268   1.97193
 Alpha virt. eigenvalues --    1.97286   1.98644   1.99591   2.00232   2.00662
 Alpha virt. eigenvalues --    2.01201   2.01770   2.03012   2.03931   2.04922
 Alpha virt. eigenvalues --    2.06199   2.09664   2.11185   2.13092   2.13699
 Alpha virt. eigenvalues --    2.16107   2.17054   2.17554   2.20158   2.21157
 Alpha virt. eigenvalues --    2.23006   2.23838   2.26767   2.27790   2.29089
 Alpha virt. eigenvalues --    2.29533   2.29823   2.30808   2.31056   2.31680
 Alpha virt. eigenvalues --    2.33469   2.39575   2.40514   2.41354   2.41550
 Alpha virt. eigenvalues --    2.42323   2.43475   2.44595   2.45465   2.46839
 Alpha virt. eigenvalues --    2.48082   2.49744   2.53677   2.53956   2.54127
 Alpha virt. eigenvalues --    2.54413   2.55102   2.55205   2.55768   2.55975
 Alpha virt. eigenvalues --    2.56807   2.57775   2.57833   2.58612   2.58623
 Alpha virt. eigenvalues --    2.59103   2.59771   2.60272   2.60633   2.61159
 Alpha virt. eigenvalues --    2.61731   2.62555   2.63130   2.64192   2.65574
 Alpha virt. eigenvalues --    2.65872   2.66170   2.67646   2.68376   2.69154
 Alpha virt. eigenvalues --    2.70008   2.70882   2.72665   2.73837   2.74303
 Alpha virt. eigenvalues --    2.74601   2.74902   2.75126   2.76074   2.77357
 Alpha virt. eigenvalues --    2.77571   2.78978   2.79438   2.81313   2.83280
 Alpha virt. eigenvalues --    2.84344   2.85829   2.86330   2.87529   2.88742
 Alpha virt. eigenvalues --    2.89404   2.90566   2.91907   2.93390   2.94209
 Alpha virt. eigenvalues --    2.96756   2.97683   2.99830   3.01647   3.03901
 Alpha virt. eigenvalues --    3.06897   3.07977   3.08884   3.09453   3.10662
 Alpha virt. eigenvalues --    3.11773   3.13678   3.15441   3.16384   3.17206
 Alpha virt. eigenvalues --    3.18531   3.18928   3.20289   3.21073   3.21722
 Alpha virt. eigenvalues --    3.22913   3.25520   3.26797   3.28835   3.30626
 Alpha virt. eigenvalues --    3.31302   3.34165   3.34702   3.36551   3.39808
 Alpha virt. eigenvalues --    3.46706   3.52003   3.53050   3.55481   3.59310
 Alpha virt. eigenvalues --    3.59779   3.61366   3.75680   3.77701   3.81991
 Alpha virt. eigenvalues --    3.82735   3.82863   3.84014   3.84581   3.85190
 Alpha virt. eigenvalues --    3.85917   3.87183   3.88540   3.89330   3.90869
 Alpha virt. eigenvalues --    3.91311   3.94181   3.94249   4.03460   4.09586
 Alpha virt. eigenvalues --    4.09853   4.14865   4.16654   4.18018   4.19163
 Alpha virt. eigenvalues --    4.25936   4.27898   4.28082   4.28982   4.29792
 Alpha virt. eigenvalues --    4.69833   4.82856   4.84429   5.11931   5.12397
 Alpha virt. eigenvalues --    5.13594   5.19294   5.30728   5.38317   5.41210
 Alpha virt. eigenvalues --    5.44107   5.61615   5.65125   5.82629   5.84988
 Alpha virt. eigenvalues --    9.77951  23.57917  23.67421  23.70356  23.74471
 Alpha virt. eigenvalues --   23.75838  23.89960  23.93697  24.00602  24.01028
 Alpha virt. eigenvalues --   24.03289  24.03769  24.04855  24.05243  24.05815
 Alpha virt. eigenvalues --   24.06358  24.15174  25.83278  26.13210  26.62153
 Alpha virt. eigenvalues --   35.53054  49.91526  49.92362  49.98270  50.00029
 Alpha virt. eigenvalues --  215.77078
          Condensed to atoms (all electrons):
               1          2          3          4          5          6
     1  C   17.470198  -2.369675   4.318030  -4.701573  -6.354309  -3.222622
     2  C   -2.369675  18.977058 -10.233572   0.498817   0.717838   1.688425
     3  C    4.318030 -10.233572  28.187243 -18.159736   0.092331  -6.166715
     4  C   -4.701573   0.498817 -18.159736  47.865998  -1.483801   0.417303
     5  C   -6.354309   0.717838   0.092331  -1.483801  13.949683  -1.608964
     6  C   -3.222622   1.688425  -6.166715   0.417303  -1.608964  16.551384
     7  H    0.316516  -0.035722  -0.025098   0.030947   0.029736   0.031381
     8  H    0.016968   0.309045   0.036006   0.019136  -0.016272  -0.028957
     9  H    0.001472  -0.088133   0.453956  -0.099412  -0.007370   0.013106
    10  H    0.058891  -0.029622  -0.036487  -0.028739   0.293367   0.078814
    11  Cl  -0.309001   0.348830   0.000912  -0.158328   0.572185  -1.076235
    12  N    0.725277  -0.082603   4.249270  -8.627677   0.820013  -0.386132
    13  C    0.114539  -0.103140   1.330234  -4.085363   0.325169  -0.458117
    14  O   -0.018414   0.035565  -0.095260  -0.015932  -0.012857  -0.029306
    15  O   -0.017807   0.088721  -0.118267   0.684564  -0.054047  -0.029314
    16  C    0.732234  -2.824117   2.398606  -7.349435  -0.830458  -0.420479
    17  O   -0.017224   0.083581  -0.112866   0.288006   0.007854  -0.028244
    18  O   -0.010498   0.005458  -0.082205   0.187804  -0.032948   0.011020
    19  C   -0.021444   0.075710  -0.141806   0.907183  -0.086768  -0.052870
    20  C    0.001559  -0.437879  -0.508531   1.101033  -0.155922  -0.015752
    21  C   -0.010642   0.055850  -0.022511   0.149832   0.009793   0.020343
    22  H    0.001939   0.015375  -0.008789   0.037807   0.002119  -0.004318
    23  H    0.000096  -0.002764   0.001280  -0.008968  -0.000601  -0.000232
    24  H    0.000258   0.010670   0.012793  -0.004548   0.001219  -0.000296
    25  C    0.009651   0.003565   0.100696  -0.311497   0.006901  -0.031370
    26  H    0.000041  -0.000171   0.001469  -0.002302   0.000695   0.000180
    27  H   -0.001369  -0.001659  -0.009051   0.009298  -0.006434   0.002263
    28  H   -0.000005  -0.000028   0.000619  -0.000228  -0.000636  -0.000107
    29  C    0.001526  -0.030353  -0.054396   0.018202  -0.004383   0.002589
    30  H    0.000007   0.000077   0.000705  -0.000896   0.000018  -0.000021
    31  H   -0.000009   0.000067  -0.000438   0.002118   0.000063   0.000037
    32  H   -0.000009  -0.000190  -0.001026   0.000884   0.000070   0.000042
    33  C    0.002354   0.005984  -0.021993  -0.395160  -0.001200   0.008934
    34  H   -0.000416  -0.006454   0.024913   0.019164  -0.000451  -0.000662
    35  H    0.000110   0.000282   0.002373  -0.011202   0.000157   0.000104
    36  H   -0.000040   0.000869   0.003060   0.008288   0.000659  -0.000504
    37  C    0.003229   0.050040   0.130193  -0.279177   0.021368   0.005540
    38  H   -0.000023   0.001025   0.000854  -0.007317  -0.000002  -0.000021
    39  H   -0.000019  -0.000137  -0.001246   0.001998  -0.000053   0.000030
    40  H    0.000826  -0.014730   0.004896  -0.051285  -0.000717  -0.001408
    41  C   -0.001576  -0.012505  -0.029180   0.176263  -0.014066  -0.001298
    42  H    0.000009   0.000004   0.000626  -0.001745   0.000194   0.000022
    43  H    0.000007   0.000013   0.000289  -0.000452   0.000013  -0.000014
    44  H   -0.000004   0.000028  -0.000209   0.001497  -0.000083   0.000003
               7          8          9         10         11         12
     1  C    0.316516   0.016968   0.001472   0.058891  -0.309001   0.725277
     2  C   -0.035722   0.309045  -0.088133  -0.029622   0.348830  -0.082603
     3  C   -0.025098   0.036006   0.453956  -0.036487   0.000912   4.249270
     4  C    0.030947   0.019136  -0.099412  -0.028739  -0.158328  -8.627677
     5  C    0.029736  -0.016272  -0.007370   0.293367   0.572185   0.820013
     6  C    0.031381  -0.028957   0.013106   0.078814  -1.076235  -0.386132
     7  H    0.514914  -0.007469  -0.000383  -0.000287  -0.004179   0.000435
     8  H   -0.007469   0.532664  -0.007664   0.000046  -0.000034   0.000136
     9  H   -0.000383  -0.007664   0.511719   0.000071   0.000505  -0.016106
    10  H   -0.000287   0.000046   0.000071   0.500635  -0.008147   0.007326
    11  Cl  -0.004179  -0.000034   0.000505  -0.008147  17.324709   0.009106
    12  N    0.000435   0.000136  -0.016106   0.007326   0.009106  10.321451
    13  C    0.000061  -0.000821   0.018362  -0.015023  -0.011058   0.417963
    14  O   -0.000025  -0.000006   0.000635  -0.003126  -0.000007  -0.125188
    15  O    0.000000   0.000000  -0.003249  -0.000294   0.000095  -0.369871
    16  C    0.001631   0.012034   0.139354   0.035081  -0.047251   0.654410
    17  O    0.000103   0.001239  -0.084449   0.000149  -0.000645  -0.195253
    18  O    0.000001   0.000051  -0.000218   0.000405  -0.000111  -0.196919
    19  C    0.000028   0.000238   0.003335  -0.000076  -0.000819  -0.117667
    20  C    0.000033   0.000601   0.002681   0.000930  -0.003166  -0.649732
    21  C   -0.000022  -0.000277  -0.004130  -0.000225   0.001005   0.028599
    22  H    0.000001   0.000038  -0.000056   0.000004  -0.000088  -0.004674
    23  H    0.000000   0.000001  -0.000028   0.000000  -0.000001  -0.001729
    24  H    0.000000  -0.000004   0.000096  -0.000001   0.000003   0.007001
    25  C    0.000001   0.000031  -0.000659  -0.000265  -0.001434  -0.049890
    26  H    0.000000   0.000000  -0.000001   0.000000   0.000004   0.002115
    27  H    0.000000  -0.000001  -0.000037   0.000006   0.000016  -0.014373
    28  H    0.000000   0.000000   0.000000   0.000000   0.000005   0.001683
    29  C    0.000000   0.000002   0.001724  -0.000008  -0.000069   0.016202
    30  H    0.000000   0.000000   0.000000   0.000000   0.000000   0.000589
    31  H    0.000000   0.000000   0.000000   0.000000   0.000000   0.000236
    32  H    0.000000   0.000000   0.000003   0.000000   0.000000   0.000078
    33  C    0.000018   0.000196   0.009619   0.000230   0.000255   0.033353
    34  H    0.000001  -0.000013  -0.000206  -0.000017   0.000057  -0.004055
    35  H    0.000000   0.000001  -0.000007   0.000000   0.000002  -0.000393
    36  H    0.000000   0.000000  -0.000022  -0.000006   0.000009   0.002690
    37  C    0.000002   0.000072  -0.007372  -0.000004   0.000397   0.122334
    38  H    0.000000   0.000000   0.000011   0.000000   0.000000  -0.000684
    39  H    0.000000  -0.000001   0.000192   0.000000   0.000000   0.000184
    40  H    0.000000   0.000009  -0.002202   0.000001  -0.000009  -0.004508
    41  C    0.000001   0.000014  -0.001749   0.000022  -0.000028  -0.047895
    42  H    0.000000   0.000000  -0.000001   0.000000   0.000000   0.000342
    43  H    0.000000   0.000000   0.000001   0.000000   0.000000   0.000271
    44  H    0.000000   0.000000  -0.000002   0.000000   0.000000  -0.000238
              13         14         15         16         17         18
     1  C    0.114539  -0.018414  -0.017807   0.732234  -0.017224  -0.010498
     2  C   -0.103140   0.035565   0.088721  -2.824117   0.083581   0.005458
     3  C    1.330234  -0.095260  -0.118267   2.398606  -0.112866  -0.082205
     4  C   -4.085363  -0.015932   0.684564  -7.349435   0.288006   0.187804
     5  C    0.325169  -0.012857  -0.054047  -0.830458   0.007854  -0.032948
     6  C   -0.458117  -0.029306  -0.029314  -0.420479  -0.028244   0.011020
     7  H    0.000061  -0.000025   0.000000   0.001631   0.000103   0.000001
     8  H   -0.000821  -0.000006   0.000000   0.012034   0.001239   0.000051
     9  H    0.018362   0.000635  -0.003249   0.139354  -0.084449  -0.000218
    10  H   -0.015023  -0.003126  -0.000294   0.035081   0.000149   0.000405
    11  Cl  -0.011058  -0.000007   0.000095  -0.047251  -0.000645  -0.000111
    12  N    0.417963  -0.125188  -0.369871   0.654410  -0.195253  -0.196919
    13  C    9.697877   0.652028   0.118883  -0.491143   0.076017   0.012852
    14  O    0.652028   8.004243  -0.129578   0.068272  -0.001178   0.001112
    15  O    0.118883  -0.129578   8.202975  -0.488692   0.039364   0.035021
    16  C   -0.491143   0.068272  -0.488692  14.842400   0.149456   0.253041
    17  O    0.076017  -0.001178   0.039364   0.149456   8.163047  -0.131024
    18  O    0.012852   0.001112   0.035021   0.253041  -0.131024   8.020013
    19  C   -1.062967  -0.036663   0.175453  -0.379646   0.006342   0.023026
    20  C   -0.266018   0.005094   0.010882  -0.283851  -0.046212   0.059929
    21  C   -0.110375  -0.061117   0.005721  -0.107562   0.005416  -0.009337
    22  H   -0.021578  -0.002779  -0.006364  -0.030674   0.002128  -0.000335
    23  H    0.017094  -0.001401   0.010874   0.010578  -0.000087   0.000002
    24  H   -0.030103   0.000311  -0.002884  -0.031880   0.002258  -0.000560
    25  C    0.217898  -0.112888   0.026231  -0.061939   0.005311   0.002309
    26  H    0.026115   0.007669   0.010060  -0.000058  -0.000017   0.000000
    27  H    0.009677  -0.047234  -0.001913   0.019629  -0.000093   0.000129
    28  H   -0.023627   0.004353  -0.012157   0.002363  -0.000036  -0.000072
    29  C   -0.092747   0.001745  -0.230147   0.234920  -0.008225  -0.005986
    30  H    0.000552   0.000112   0.015856  -0.000905   0.000015  -0.000021
    31  H   -0.003188  -0.000473  -0.009611  -0.001108   0.000026  -0.000068
    32  H    0.001530  -0.000225  -0.010778   0.000332  -0.000006  -0.000279
    33  C    0.025223  -0.000491  -0.012029   0.183608  -0.107920  -0.009640
    34  H   -0.006444   0.000041  -0.000140  -0.033954  -0.001564  -0.010908
    35  H    0.001869  -0.000001  -0.000007   0.029716  -0.002502   0.011062
    36  H    0.001641  -0.000004   0.000056  -0.023767   0.001567  -0.005188
    37  C    0.093283  -0.001401  -0.019587  -0.036946  -0.122939  -0.012352
    38  H   -0.000158   0.000026  -0.000077  -0.028903   0.002985  -0.008916
    39  H    0.000283  -0.000002  -0.000084   0.030929   0.007908   0.007128
    40  H    0.007552   0.000111  -0.000661   0.033475  -0.059111  -0.004389
    41  C   -0.111951   0.000857   0.005541  -0.123291   0.010954  -0.132663
    42  H    0.001294   0.000001  -0.000026   0.002601  -0.000063  -0.012355
    43  H   -0.000325   0.000000   0.000013  -0.003260   0.000299   0.017609
    44  H   -0.000490   0.000000   0.000042  -0.003365  -0.000145  -0.009912
              19         20         21         22         23         24
     1  C   -0.021444   0.001559  -0.010642   0.001939   0.000096   0.000258
     2  C    0.075710  -0.437879   0.055850   0.015375  -0.002764   0.010670
     3  C   -0.141806  -0.508531  -0.022511  -0.008789   0.001280   0.012793
     4  C    0.907183   1.101033   0.149832   0.037807  -0.008968  -0.004548
     5  C   -0.086768  -0.155922   0.009793   0.002119  -0.000601   0.001219
     6  C   -0.052870  -0.015752   0.020343  -0.004318  -0.000232  -0.000296
     7  H    0.000028   0.000033  -0.000022   0.000001   0.000000   0.000000
     8  H    0.000238   0.000601  -0.000277   0.000038   0.000001  -0.000004
     9  H    0.003335   0.002681  -0.004130  -0.000056  -0.000028   0.000096
    10  H   -0.000076   0.000930  -0.000225   0.000004   0.000000  -0.000001
    11  Cl  -0.000819  -0.003166   0.001005  -0.000088  -0.000001   0.000003
    12  N   -0.117667  -0.649732   0.028599  -0.004674  -0.001729   0.007001
    13  C   -1.062967  -0.266018  -0.110375  -0.021578   0.017094  -0.030103
    14  O   -0.036663   0.005094  -0.061117  -0.002779  -0.001401   0.000311
    15  O    0.175453   0.010882   0.005721  -0.006364   0.010874  -0.002884
    16  C   -0.379646  -0.283851  -0.107562  -0.030674   0.010578  -0.031880
    17  O    0.006342  -0.046212   0.005416   0.002128  -0.000087   0.002258
    18  O    0.023026   0.059929  -0.009337  -0.000335   0.000002  -0.000560
    19  C    7.166109   0.015735  -0.005069   0.031992  -0.060698  -0.001351
    20  C    0.015735   7.694808  -0.012578   0.000873   0.000287  -0.005565
    21  C   -0.005069  -0.012578   5.806166   0.371826   0.423514   0.370252
    22  H    0.031992   0.000873   0.371826   0.497193  -0.020987  -0.025362
    23  H   -0.060698   0.000287   0.423514  -0.020987   0.516800  -0.026368
    24  H   -0.001351  -0.005565   0.370252  -0.025362  -0.026368   0.533555
    25  C   -0.089338   0.003557  -0.357162  -0.005097   0.006197   0.006939
    26  H   -0.025921  -0.000069   0.007691  -0.001206  -0.000234   0.000333
    27  H   -0.055015   0.000510  -0.017000   0.000180   0.000306  -0.000212
    28  H    0.020106  -0.000006   0.019329   0.000077   0.000153  -0.000626
    29  C   -0.039706   0.011185  -0.229003   0.000479  -0.013351   0.030007
    30  H   -0.078409  -0.000147  -0.002846   0.000130   0.000329  -0.000391
    31  H    0.009229  -0.000180   0.026890  -0.000513  -0.000041  -0.000150
    32  H   -0.004198  -0.001267  -0.028785  -0.000041  -0.000141   0.003440
    33  C   -0.014684  -0.022558  -0.000390  -0.000461   0.000063  -0.000134
    34  H   -0.000164   0.000854   0.000121  -0.000009   0.000000   0.000001
    35  H    0.000051  -0.039562  -0.000037   0.000000   0.000000   0.000000
    36  H   -0.000013  -0.030529  -0.000002   0.000000   0.000000   0.000000
    37  C    0.001911  -0.224859  -0.001827  -0.000604  -0.000147   0.001588
    38  H    0.001938   0.019439  -0.000107  -0.000001   0.000001  -0.000041
    39  H   -0.000744  -0.033129   0.000185   0.000000   0.000000   0.000001
    40  H    0.000556   0.025846  -0.001591   0.000012   0.000007  -0.000204
    41  C    0.010970   0.227142   0.001065   0.000048  -0.000006   0.000055
    42  H   -0.000067   0.015747   0.000007   0.000000   0.000000   0.000000
    43  H    0.000039  -0.087039   0.000002   0.000000   0.000000   0.000000
    44  H    0.000096   0.001182   0.000040   0.000000   0.000000   0.000000
              25         26         27         28         29         30
     1  C    0.009651   0.000041  -0.001369  -0.000005   0.001526   0.000007
     2  C    0.003565  -0.000171  -0.001659  -0.000028  -0.030353   0.000077
     3  C    0.100696   0.001469  -0.009051   0.000619  -0.054396   0.000705
     4  C   -0.311497  -0.002302   0.009298  -0.000228   0.018202  -0.000896
     5  C    0.006901   0.000695  -0.006434  -0.000636  -0.004383   0.000018
     6  C   -0.031370   0.000180   0.002263  -0.000107   0.002589  -0.000021
     7  H    0.000001   0.000000   0.000000   0.000000   0.000000   0.000000
     8  H    0.000031   0.000000  -0.000001   0.000000   0.000002   0.000000
     9  H   -0.000659  -0.000001  -0.000037   0.000000   0.001724   0.000000
    10  H   -0.000265   0.000000   0.000006   0.000000  -0.000008   0.000000
    11  Cl  -0.001434   0.000004   0.000016   0.000005  -0.000069   0.000000
    12  N   -0.049890   0.002115  -0.014373   0.001683   0.016202   0.000589
    13  C    0.217898   0.026115   0.009677  -0.023627  -0.092747   0.000552
    14  O   -0.112888   0.007669  -0.047234   0.004353   0.001745   0.000112
    15  O    0.026231   0.010060  -0.001913  -0.012157  -0.230147   0.015856
    16  C   -0.061939  -0.000058   0.019629   0.002363   0.234920  -0.000905
    17  O    0.005311  -0.000017  -0.000093  -0.000036  -0.008225   0.000015
    18  O    0.002309   0.000000   0.000129  -0.000072  -0.005986  -0.000021
    19  C   -0.089338  -0.025921  -0.055015   0.020106  -0.039706  -0.078409
    20  C    0.003557  -0.000069   0.000510  -0.000006   0.011185  -0.000147
    21  C   -0.357162   0.007691  -0.017000   0.019329  -0.229003  -0.002846
    22  H   -0.005097  -0.001206   0.000180   0.000077   0.000479   0.000130
    23  H    0.006197  -0.000234   0.000306   0.000153  -0.013351   0.000329
    24  H    0.006939   0.000333  -0.000212  -0.000626   0.030007  -0.000391
    25  C    6.118832   0.368867   0.466640   0.359621  -0.238935  -0.004033
    26  H    0.368867   0.557946  -0.028212  -0.024759  -0.025233   0.000027
    27  H    0.466640  -0.028212   0.495549  -0.024275   0.021783   0.000217
    28  H    0.359621  -0.024759  -0.024275   0.538594   0.000752  -0.000207
    29  C   -0.238935  -0.025233   0.021783   0.000752   5.823299   0.448889
    30  H   -0.004033   0.000027   0.000217  -0.000207   0.448889   0.523937
    31  H   -0.038714  -0.000411   0.000251   0.003159   0.388930  -0.025494
    32  H    0.018624   0.000064  -0.000437  -0.000091   0.394120  -0.028565
    33  C   -0.001232   0.000000  -0.000010   0.000020   0.006197  -0.000001
    34  H   -0.000072   0.000000   0.000000   0.000000  -0.000029   0.000000
    35  H    0.000011   0.000000   0.000000   0.000000  -0.000008   0.000000
    36  H   -0.000019   0.000000   0.000000   0.000000  -0.000001   0.000000
    37  C   -0.003215   0.000029   0.000000  -0.000026  -0.000482   0.000057
    38  H    0.000352   0.000000   0.000000   0.000000  -0.001047   0.000001
    39  H   -0.000037   0.000000   0.000000   0.000000   0.000182   0.000000
    40  H    0.000391   0.000000   0.000001   0.000000  -0.000089  -0.000001
    41  C   -0.000404   0.000000   0.000049   0.000002  -0.001507  -0.000001
    42  H    0.000008   0.000000   0.000000   0.000000  -0.000036   0.000000
    43  H    0.000001   0.000000   0.000000   0.000000  -0.000004   0.000000
[...]
 01686399,-0.07156633,0.06812435,-0.00000714,-0.00000386,0.00000333,0.0
 0000518,0.00000282,0.00000505,-0.00001496,-0.00002604,0.00001121,0.000
 02893,0.00007299,-0.00001251,0.00001992,-0.00002929,-0.00000618,0.0000
 0991,0.00000862,-0.00000468,-0.00000161,0.00000023,-0.00000011,-0.0000
 0043,-0.00000397,-0.00000304,-0.00000411,0.00000554,-0.00001305,0.0000
 0626,-0.00001715,0.00001310,-0.00001359,-0.00000444,-0.00000244,-0.000
 09697,-0.00028732,-0.00000256,0.00042262,0.00047814,0.00001246,-0.0001
 9786,-0.00015268,-0.00012872,-0.00023938,-0.00048772,-0.00007581,-0.00
 046292,0.00004127,-0.00058374,0.00062725,-0.00007540,0.00017476,0.0019
 0173,-0.00036476,0.00046996,0.00036123,0.00024977,0.00010692,-0.084232
 03,0.02157190,-0.00511774,-0.00014778,-0.00010899,-0.00006001,0.000023
 06,-0.00004240,-0.00005223,0.00000401,0.00000858,0.00002241,-0.0000073
 8,0.00002479,0.00001537,-0.00003768,-0.00011093,-0.00006530,-0.0000176
 7,0.00000835,0.00004353,-0.00001928,-0.00002373,-0.00004792,0.00011272
 ,0.00008205,0.00000369,-0.00028847,0.00029826,0.00014783,0.00007933,-0
 .00005137,-0.00016291,0.00002073,-0.00021709,0.00020884,0.00002921,-0.
 00004632,-0.00004005,0.00447771,-0.02378936,0.00712697,-0.00340432,-0.
 00222496,0.00341358,0.00054846,0.00011731,-0.00075185,0.00049914,-0.00
 077958,0.00024117,-0.01173072,0.03300238,-0.01088580,0.00099843,0.0006
 7292,-0.00003478,0.00103255,0.00033030,0.00073551,-0.00578870,0.000571
 99,-0.00230437,0.57716650,-0.00001421,-0.00001373,-0.00000809,0.000006
 81,-0.00000200,0.00001265,-0.00002350,-0.00004447,0.00000501,0.0000513
 8,0.00008790,-0.00010474,0.00000124,-0.00002753,-0.00000850,0.00004480
 ,0.00001250,0.00001034,-0.00000092,-0.00000200,-0.00000173,0.00000118,
 -0.00000725,-0.00000175,-0.00000462,0.00000661,-0.00001007,0.00000587,
 0.00000677,-0.00000447,-0.00002874,-0.00001504,0.00000179,0.00005554,-
 0.00067050,-0.00012758,0.00016786,0.00022485,0.00007641,-0.00010587,-0
 .00008752,-0.00014206,-0.00007625,-0.00028797,-0.00009614,-0.00058044,
 -0.00018982,-0.00233152,0.00017599,-0.00005199,0.00053528,0.00542372,-
 0.03451335,-0.00980427,0.00005269,0.00006341,0.00018440,0.02000041,-0.
 16533793,0.02963612,-0.00004549,-0.00003536,-0.00002686,0.00000406,-0.
 00001717,-0.00001135,0.00000460,0.00000695,0.00000060,-0.00000266,0.00
 000506,0.00000749,-0.00001758,0.00001033,-0.00002748,0.00001924,-0.000
 00096,-0.00003071,-0.00001706,-0.00000394,-0.00000385,0.00002986,-0.00
 005000,0.00002818,-0.00010301,0.00024784,-0.00002988,0.00006351,-0.000
 04682,-0.00014966,0.00005617,-0.00029484,0.00015221,-0.00002397,0.0000
 1051,0.00003358,-0.00196772,-0.01706960,0.01136216,-0.00096534,0.00046
 660,0.00060052,0.00055767,-0.00014317,-0.00097702,0.00124069,0.0004785
 3,-0.00089247,0.00768933,-0.00458154,0.00598516,-0.00131055,0.00025861
 ,-0.00052012,-0.00040515,-0.00023510,-0.00045018,-0.00107473,0.0010412
 9,-0.00049431,0.02284512,0.47952235,-0.00004236,-0.00005007,-0.0000094
 6,0.00003194,-0.00000136,0.00003035,-0.00010115,-0.00016835,-0.0000055
 4,0.00014293,0.00044624,-0.00042294,0.00002527,-0.00013632,-0.00001534
 ,0.00012166,0.00004037,0.00002074,-0.00000231,-0.00000490,-0.00000483,
 0.00000081,-0.00002670,-0.00000378,-0.00001499,0.00001679,-0.00001226,
 0.00001654,0.00001457,-0.00002237,-0.00009978,-0.00004818,0.00000935,0
 .00029741,-0.00209008,-0.00153128,-0.00038260,-0.00120745,0.00127133,-
 0.00001332,0.00018333,-0.00053275,0.00036186,0.00080640,-0.00019253,-0
 .00151879,0.00191438,-0.00541547,0.00047835,-0.00162233,0.00198732,0.0
 0747958,-0.04545391,-0.00634195,-0.00022722,-0.00043320,0.00018278,-0.
 00762115,0.04198752,-0.08029591,0.00006020,0.00010822,-0.00001611,-0.0
 0001559,0.00001493,0.00005331,0.00001498,0.00000146,-0.00003414,-0.000
 00534,-0.00001762,0.00000114,0.00002527,0.00010265,-0.00003571,-0.0000
 1278,0.00001721,-0.00002985,0.00003399,-0.00001124,0.00003136,-0.00001
 068,-0.00002182,-0.00000845,0.00010749,0.00003084,0.00003591,0.0000049
 2,0.00002073,0.00007807,-0.00004900,0.00003762,-0.00033602,0.00004850,
 -0.00003295,-0.00005468,-0.00231116,0.02412080,-0.00643223,0.00299832,
 0.00156588,-0.00246800,-0.00039251,0.00016266,0.00038908,-0.00092718,-
 0.00076190,0.00063277,-0.00520455,0.01427094,-0.00278968,0.00105985,-0
 .00067272,0.00033434,0.00007731,0.00022876,0.00000489,-0.00228088,0.00
 018238,-0.00061486,-0.00644902,0.02659908,0.57659484,0.00000058,-0.000
 00291,0.00000028,0.00000378,-0.00000181,-0.00000046,-0.00000498,-0.000
 00581,0.00000606,-0.00000795,0.00001489,0.00001501,-0.00001187,0.00000
 333,0.00000454,0.00000225,0.00000027,-0.00000008,0.00000033,-0.0000002
 9,-0.00000175,0.00000025,-0.00000202,-0.00000286,0.00000074,0.00000046
 ,-0.00000815,0.00000402,0.00000807,-0.00000610,0.00000391,-0.00000125,
 0.00000088,0.00000266,0.00000299,0.00020966,-0.00004101,0.00024872,-0.
 00013497,0.00003855,-0.00004462,0.00008548,0.00010071,-0.00015959,0.00
 003098,0.00002947,0.00033378,-0.00013800,0.00016972,-0.00030299,0.0003
 7258,0.00099905,-0.00059436,0.00031691,-0.00016776,0.00001117,-0.00004
 458,-0.00790220,-0.00025952,-0.00312021,0.00004242,0.00000537,0.000037
 18,-0.00000734,0.00000868,0.00000634,-0.00000586,-0.00000014,-0.000001
 49,0.00002428,-0.00001800,-0.00000910,-0.00008561,0.00010075,0.0001214
 7,0.00002870,-0.00001106,-0.00003595,0.00003335,-0.00000856,-0.0000214
 0,0.00005275,-0.00004871,0.00000648,0.00005028,-0.00000611,0.00006269,
 -0.00000351,0.00000625,0.00003352,-0.00013616,0.00002293,-0.00009366,0
 .00006820,-0.00003392,-0.00004615,0.00046503,-0.00080299,0.00072658,0.
 00018256,0.00011112,0.00015557,0.00001214,0.00004996,0.00011298,0.0007
 8092,0.00004111,-0.00009861,0.00080163,0.00250247,-0.00018950,0.000410
 93,-0.00019162,0.00000590,0.00013917,-0.00022223,0.00010595,-0.0004064
 7,-0.00006867,-0.00045856,-0.26514807,0.01164922,-0.09908191,0.2867294
 8,0.00000571,0.00000994,0.00000165,-0.00000546,0.00000085,-0.00000013,
 0.00001135,0.00001750,-0.00000314,0.00001183,-0.00006286,0.00001060,0.
 00002294,0.00000889,0.00000705,-0.00003051,-0.00001267,-0.00000341,-0.
 00000056,0.00000221,0.00000070,-0.00000131,0.00000467,0.00000169,0.000
 00043,-0.00000275,0.00000487,-0.00001098,-0.00001331,-0.00000513,0.000
 01333,0.00001073,0.00000070,-0.00003277,0.00011007,0.00008748,0.000067
 50,0.00002134,-0.00015689,-0.00000548,0.00000376,0.00006616,-0.0000571
 3,-0.00003676,0.00006444,0.00015348,-0.00074134,0.00028746,-0.00019606
 ,0.00035908,-0.00040522,-0.00081992,0.00254886,0.00111045,0.00001318,0
 .00005966,-0.00008189,0.03007488,-0.00251502,0.01361719,0.00000947,-0.
 00000973,0.00001772,0.00000081,0.00000351,-0.00000414,-0.00000544,-0.0
 0000207,0.00000597,0.00000213,-0.00000021,-0.00000336,-0.00001124,-0.0
 0002273,0.00002015,-0.00001201,-0.00000184,0.00002011,0.00000951,-0.00
 000202,-0.00001878,0.00000668,0.00005125,-0.00001589,0.00003756,-0.000
 01267,0.00002325,-0.00001346,0.00000135,0.00001964,-0.00003474,0.00003
 313,-0.00004864,0.00001097,-0.00001362,-0.00001335,0.00114819,0.001516
 68,-0.00076911,-0.00007933,0.00007507,-0.00037328,-0.00014218,-0.00003
 447,0.00003197,-0.00064662,-0.00017644,0.00017084,0.00018033,-0.006159
 43,0.00090087,-0.00004070,-0.00004628,-0.00018223,-0.00018424,0.000104
 99,0.00020409,0.00187966,-0.00000479,0.00076035,0.00869790,-0.04743926
 ,0.00450909,-0.01277539,0.05151431,0.00001082,0.00000961,0.00000248,-0
 .00000165,-0.00000375,-0.00000471,0.00001031,0.00002151,0.00000879,-0.
 00003716,-0.00007235,0.00000447,0.00000346,0.00002352,-0.00000114,-0.0
 0003965,-0.00001751,-0.00000002,0.00000009,0.00000149,0.00000079,-0.00
 000005,0.00000328,0.00000033,0.00000501,-0.00000405,-0.00000182,-0.000
 00558,-0.00000570,0.00000883,0.00002925,0.00001259,-0.00000341,-0.0000
 2969,0.00008784,0.00004648,-0.00003131,-0.00012898,-0.00005567,0.00001
 575,0.00004323,0.00003430,-0.00005541,0.00008396,0.00003281,0.00018217
 ,-0.00023699,0.00003243,0.00007753,0.00011324,-0.00004690,0.00086996,-
 0.00039201,0.00045500,0.00010800,0.00003244,-0.00000739,-0.00758801,-0
 .00095827,-0.00536953,-0.00003070,-0.00000744,-0.00002045,0.00000646,-
 0.00000326,-0.00000585,0.00000144,-0.00000240,0.00000403,-0.00001175,0
 .00001030,0.00000427,0.00006718,-0.00008204,-0.00008739,-0.00002234,0.
 00000544,0.00003244,-0.00002210,0.00000780,0.00001380,-0.00002927,0.00
 004920,-0.00002557,-0.00003657,-0.00000625,-0.00005177,0.00000030,-0.0
 0000556,-0.00001120,0.00007947,0.00000385,0.00009201,-0.00003421,0.000
 01940,0.00002338,-0.00064219,-0.00065005,0.00003683,0.00027237,-0.0000
 6545,0.00015335,-0.00011632,0.00011228,-0.00009911,0.00045004,0.000474
 28,0.00006917,0.00020048,0.00205235,-0.00019330,-0.00029190,-0.0000226
 5,0.00011233,0.00034485,0.00005443,0.00034013,-0.00074940,-0.00000335,
 0.00031347,-0.09871672,0.00656409,-0.09235228,0.10975321,-0.00787680,0
 .09679232,0.00000043,0.00000141,0.00000047,-0.00000185,0.00000083,-0.0
 0000330,0.00000696,0.00001264,0.00000075,-0.00002658,-0.00001959,0.000
 02342,-0.00000780,0.00000658,0.00000200,0.00000272,0.00000086,-0.00000
 080,0.00000065,-0.00000016,0.00000015,0.00000005,0.00000191,0.00000051
 ,0.00000173,-0.00000181,0.00000210,0.00000128,0.00000416,-0.00000110,0
 .00000087,0.00000026,0.00000044,-0.00002941,0.00012135,0.00008468,-0.0
 0008845,-0.00003063,-0.00005612,0.00005100,0.00002143,0.00005684,0.000
 03882,0.00005788,0.00003764,0.00068986,-0.00009198,0.00028241,-0.00021
 894,0.00001029,-0.00007958,0.00037023,0.00198061,0.00010740,-0.0000617
 7,-0.00001113,-0.00005423,-0.00187319,0.00251927,0.00565779,0.00002927
 ,0.00001290,0.00001640,-0.00000471,0.00000762,0.00000702,-0.00000200,-
 0.00000135,-0.00000104,0.00000375,-0.00000401,-0.00000416,-0.00001122,
 0.00002843,0.00002672,0.00001074,-0.00000445,-0.00001042,0.00000524,0.
 00000298,0.00000506,-0.00001362,-0.00002268,0.00000265,0.00006064,-0.0
 0011186,-0.00002922,-0.00002332,0.00001921,0.00005351,-0.00001351,0.00
 009530,-0.00004079,-0.00000158,0.00001469,0.00000637,-0.00013888,-0.00
 031639,0.00011364,-0.00013692,0.00006044,0.00003455,0.00025465,-0.0003
 7923,0.00021544,0.00002796,-0.00014315,-0.00012528,-0.00010035,-0.0001
 1185,0.00020150,-0.00002798,0.00016801,0.00008154,-0.00029410,0.000612
 27,-0.00037953,0.00003571,-0.00018830,-0.00005428,-0.04648577,-0.00203
 732,-0.00408820,0.00114838,-0.01779600,-0.02369481,0.04610427,-0.00002
 074,-0.00002439,-0.00000028,0.00001377,0.00000257,0.00000939,-0.000046
 68,-0.00007186,-0.00000724,0.00005724,0.00021652,-0.00014030,0.0000036
 4,-0.00006226,-0.00000617,0.00006847,0.00002613,0.00000214,-0.00000094
 ,-0.00000322,-0.00000212,0.00000092,-0.00001248,-0.00000177,-0.0000076
 2,0.00000930,-0.00000134,0.00001179,0.00000826,-0.00000527,-0.00005263
 ,-0.00002589,0.00000458,0.00010141,-0.00071738,-0.00061489,-0.00013513
 ,-0.00046537,0.00059189,-0.00001935,0.00005798,-0.00025674,0.00014234,
 0.00033595,-0.00014615,-0.00070357,0.00223848,-0.00136238,0.00022903,-
 0.00078245,0.00082199,0.00197079,-0.00941066,-0.00067807,-0.00006285,-
 0.00019507,0.00010203,-0.00198443,-0.01267803,-0.02520132,0.00001581,0
 .00004537,-0.00002397,-0.00000645,0.00000186,0.00002039,0.00000907,0.0
 0000314,-0.00001605,-0.00000624,-0.00000345,0.00000428,0.00003305,0.00
 001450,-0.00004041,-0.00001075,0.00001375,-0.00000223,0.00000400,-0.00
 000453,0.00002184,-0.00002165,0.00000039,-0.00000194,0.00002921,-0.000
 05751,-0.00004954,-0.00001071,0.00002341,0.00003302,0.00001130,0.00006
 097,-0.00001656,-0.00001079,0.00000302,0.00000775,-0.00000027,0.001049
 32,-0.00092945,0.00020637,0.00030858,0.00024644,-0.00029730,-0.0001678
 8,0.00087857,0.00001019,-0.00008520,0.00007094,-0.00067065,0.00090172,
 -0.00072949,0.00001829,-0.00001509,0.00010318,0.00062683,0.00004515,0.
 00060819,-0.00021838,0.00017659,0.00031536,-0.00156487,-0.13574590,-0.
 12093251,-0.00063134,0.00096201,0.00242312,0.00156920,0.14688261,-0.00
 001151,-0.00001160,-0.00000032,0.00000189,0.00000771,-0.00000183,-0.00
 001008,-0.00002111,-0.00000195,0.00001402,0.00010234,0.00004521,-0.000
 01189,-0.00002477,-0.00000126,0.00004779,0.00002235,-0.00000209,-0.000
 00054,-0.00000275,-0.00000070,0.00000131,-0.00000469,-0.00000127,-0.00
 000667,0.00000705,0.00000064,0.00001070,0.00000801,-0.00000138,-0.0000
 3224,-0.00001669,0.00000194,-0.00000705,0.00005167,-0.00000011,0.00015
 670,0.00034357,0.00003764,-0.00006885,-0.00010537,-0.00008041,-0.00002
 022,-0.00024559,-0.00008012,-0.00023263,0.00123720,0.00068818,0.000157
 91,-0.00049195,0.00028977,-0.00016506,0.00123807,0.00093893,-0.0000210
 8,0.00001593,0.00009525,0.00014909,0.00454918,0.00445561,-0.00001888,-
 0.00002580,-0.00000263,0.00000083,-0.00001135,-0.00000793,0.00000172,0
 .00000774,-0.00000280,0.00000862,-0.00000420,0.00000285,-0.00006082,0.
 00004765,0.00004893,0.00002261,-0.00000065,-0.00003209,0.00000681,-0.0
 0001025,-0.00001788,0.00005340,-0.00004180,0.00002176,-0.00008796,0.00
 016504,0.00010646,0.00003776,-0.00002570,-0.00008598,-0.00001407,-0.00
 015357,0.00000391,0.00002272,-0.00002684,-0.00001526,0.00012733,0.0001
 4440,-0.00021174,-0.00008255,-0.00006940,0.00028664,0.00004444,0.00058
 986,0.00033535,0.00012037,0.00002954,0.00000320,-0.00013543,-0.0000017
 1,-0.00017066,-0.00010601,-0.00005585,0.00000863,-0.00014339,0.0004110
 1,0.00044691,0.00019669,0.00001473,0.00023686,-0.00341423,-0.12470352,
 -0.22280187,0.00073295,-0.00654250,-0.01017256,0.00434800,0.13526865,0
 .24152357,0.00000484,0.00000250,-0.00000279,-0.00000051,-0.00000307,0.
 00000060,0.00000271,0.00000845,-0.00000664,-0.00002730,-0.00002615,-0.
 00002473,-0.00000776,0.00001238,-0.00000668,-0.00001170,-0.00000494,0.
 00000410,0.00000056,0.00000002,0.00000181,0.00000084,0.00000047,0.0000
 0247,0.00000413,-0.00000320,0.00000683,0.00000003,0.00000143,0.0000126
 4,0.00001301,0.00000384,-0.00000355,0.00004243,0.00002419,-0.00032708,
 -0.00025629,-0.00059074,0.00024563,0.00007859,0.00014257,-0.00006000,0
 .00006728,0.00051268,0.00000655,0.00004411,0.00003381,0.00013851,-0.00
 003839,0.00013951,-0.00023421,0.00025950,-0.00048933,-0.00074434,0.000
 00139,-0.00017646,0.00000324,0.00368683,0.00259720,-0.00487981,0.00001
 933,0.00005778,-0.00001900,-0.00000222,0.00001134,0.00002300,0.0000068
 9,-0.00000441,-0.00001341,-0.00002070,0.00000545,0.00000333,0.00012776
 ,-0.00004665,-0.00010350,-0.00002196,0.00000819,0.00001133,-0.00002999
 ,0.00002299,0.00005686,-0.00012344,-0.00000616,-0.00000872,0.00002801,
 -0.00016455,-0.00008634,-0.00004045,0.00001809,0.00004809,0.00015952,0
 .00009126,0.00020381,-0.00010748,0.00007098,0.00008234,0.00039223,0.00
 071240,-0.00040175,0.00051052,0.00024988,0.00007928,-0.00011320,0.0001
 4734,-0.00003211,0.00037135,0.00031604,-0.00003574,0.00078435,0.000343
 15,-0.00068583,0.00023324,0.00029257,0.00003143,-0.00003306,-0.0000267
 3,-0.00012178,0.00011891,-0.00011778,0.00000003,-0.17002804,-0.0613418
 5,0.11746528,-0.01839744,-0.00945629,0.01969863,0.00071676,0.00135060,
 -0.00161248,0.18158483,0.00001214,0.00001075,0.00000096,-0.00000061,-0
 .00000545,-0.00000246,0.00000498,0.00002307,0.00000041,-0.00003450,-0.
 00009053,-0.00001030,-0.00000327,0.00002974,-0.00000333,-0.00003519,-0
 .00001233,-0.00000094,0.00000122,0.00000153,0.00000193,-0.00000020,0.0
 0000300,0.00000195,0.00000778,-0.00000796,0.00000201,-0.00000200,-0.00
 000497,0.00001497,0.00003101,0.00001266,-0.00000509,-0.00002554,0.0001
 0664,-0.00015163,-0.00034707,-0.00059584,0.00004533,0.00014584,0.00016
 852,0.00009273,0.00010798,0.00043978,0.00016053,0.00029137,-0.00065771
 ,0.00037415,-0.00006019,0.00042771,-0.00055003,0.00030397,0.00258515,0
 .00072953,0.00001864,-0.00000479,-0.00023209,-0.02291893,-0.01217823,0
 .02186997,0.00002000,0.00001427,0.00001906,-0.00000042,0.00001332,0.00
 000828,-0.00000488,-0.00000486,0.00000625,0.00000063,-0.00000292,-0.00
 000715,0.00002644,-0.00001761,0.00000302,-0.00001214,-0.00000194,0.000
 02769,0.00000832,0.00000520,0.00001357,-0.00003764,0.00003429,-0.00000
 578,0.00004205,-0.00025647,0.00000764,-0.00005056,0.00004387,0.0001509
 8,0.00000188,0.00051354,-0.00015506,0.00004605,-0.00000331,-0.00005076
 ,0.00258251,-0.00609496,0.00050218,-0.00139932,-0.00053906,0.00143877,
 0.00016867,0.00024815,0.00012538,0.00012584,0.00007947,-0.00023277,-0.
 00161360,0.00123139,-0.00053686,0.00087532,0.00016854,-0.00017159,0.00
 013781,0.00000580,-0.00004897,-0.00003032,0.00005315,-0.00040830,-0.05
 867899,-0.07553536,0.05631074,0.00107234,-0.00010958,-0.00166437,0.013
 94137,0.00714104,-0.01166404,0.06528123,0.08276330,0.00000438,0.000005
 65,0.00000156,-0.00000401,-0.00000228,-0.00000233,0.00001235,0.0000171
 2,0.00000354,-0.00000364,-0.00005243,0.00001081,0.00000406,0.00001250,
 0.00000558,-0.00001818,-0.00001066,-0.00000157,0.00000005,0.00000116,-
 0.00000042,-0.00000092,0.00000424,0.00000065,0.00000124,-0.00000236,0.
 00000161,-0.00000677,-0.00000090,-0.00000642,0.00001062,0.00000715,0.0
 0000109,0.00002611,0.00011505,0.00007182,-0.00002691,-0.00005573,-0.00
 009473,0.00002200,0.00002758,0.00006341,-0.00006333,0.00003192,0.00003
 141,-0.00004743,-0.00018405,0.00006487,-0.00012073,0.00002479,0.000056
 39,-0.00068252,-0.00073320,0.00082169,0.00001095,0.00001778,-0.0000491
 6,0.00605397,0.00143997,-0.00745060,0.00002646,0.00001937,0.00000004,-
 0.00000586,0.00000625,0.00000443,-0.00000133,-0.00000473,0.00000359,-0
 .00000676,0.00000478,-0.00000058,0.00002905,-0.00002446,-0.00002343,-0
 .00000780,-0.00000097,0.00001992,-0.00000946,0.00000654,0.00001428,-0.
 00003973,0.00001271,-0.00001176,0.00016023,-0.00021416,-0.00037707,-0.
 00004808,0.00003836,0.00004713,0.00023018,0.00009858,-0.00026179,-0.00
 007398,0.00006153,0.00010078,-0.00125009,0.00214723,0.00009807,0.00073
 040,0.00023951,-0.00003691,-0.00020398,-0.00011395,0.00047568,0.000205
 09,-0.00003267,0.00004208,0.00064908,-0.00053910,0.00004058,-0.0007027
 5,0.00026160,0.00021898,0.00004439,0.00015608,-0.00013363,-0.00020530,
 -0.00013441,0.00024148,0.11618011,0.05916325,-0.15887732,-0.00940971,-
 0.00544058,0.00989582,0.01725383,0.00963246,-0.01588541,-0.12871529,-0
 .06600653,0.17087586\\0.00000250,0.00000014,-0.00000102,0.00000639,0.0
 0000045,-0.00000019,0.00000115,-0.00000237,-0.00000113,-0.00000344,0.0
 0000814,0.00000336,0.00000010,-0.00000327,0.00000044,-0.00000170,-0.00
 000051,-0.00000011,0.00000145,-0.00000034,-0.00000033,0.00000086,0.000
 00099,-0.00000042,0.00000322,0.00000433,0.00000068,0.00000189,-0.00000
 023,0.00000065,0.00000311,-0.00000180,-0.00000044,-0.00000805,-0.00000
 167,-0.00001231,0.00000780,-0.00001787,0.00001405,-0.00000464,0.000005
 06,-0.00000876,0.00000653,0.00000809,-0.00000960,0.00000410,0.00000436
 ,-0.00000156,0.00000222,-0.00000448,0.00000466,-0.00000599,0.00000085,
 -0.00000557,-0.00000413,-0.00000462,0.00000915,0.00000249,-0.00000163,
 0.00000640,0.00000191,0.00000168,-0.00000301,-0.00000062,0.00000150,0.
 00000159,-0.00000006,0.00000044,0.00000055,-0.00000169,0.00000124,0.00
 000090,-0.00000544,0.00000175,0.00000148,-0.00000109,-0.00000163,0.000
 00066,0.00000081,-0.00000060,-0.00000093,0.00000047,-0.00000039,0.0000
 0027,-0.00000072,0.00000556,0.00000221,-0.00000193,-0.00000047,-0.0000
 0004,-0.00000087,-0.00000160,-0.00000119,-0.00000179,0.00000122,-0.000
 00045,-0.00000130,0.00000002,-0.00000256,0.00000156,-0.00000053,0.0000
 0007,-0.00000208,-0.00000217,0.00000154,0.00000163,-0.00000033,-0.0000
 0014,0.00000171,-0.00000271,0.00000167,-0.00000094,0.00000095,0.000000
 07,-0.00000260,0.00000156,-0.00000110,-0.00000003,0.00000237,-0.000001
 65,0.00000002,0.00000333,0.00000024,-0.00000002,-0.00000091,0.00000071
 ,-0.00000147,-0.00000168,-0.00000022,-0.00000131,-0.00000220,0.0000014
 2\\\@


 THE ONLY EXISTING THINGS ARE ATOMS AND EMPTY SPACE;
 ALL ELSE IS MERE OPINION. -- DEMOCRITUS OF ABDERA D. 370 B.C.
 EXPERIMENTS ARE THE ONLY MEANS OF KNOWLEDGE AT OUR DISPOSAL
 THE REST IS POETRY, IMAGINATION. -- MAX PLANCK
 Job cpu time:       0 days 15 hours 46 minutes 42.4 seconds.
 File lengths (MBytes):  RWF=   1478 Int=      0 D2E=      0 Chk=     30 Scr=      1
 Normal termination of Gaussian 09 at Tue Apr 23 16:14:06 2024.
