 Entering Gaussian System, Link 0=g09
 Initial command:
 /cm/shared/apps/gaussian/g09revD.01/g09/l1.exe "//home/sweav003/CHB/CHActivation_Mkhalid/non_select/G09-Scheme8_1.com.o9709984.tmp/Gau-23578.inp" -scrdir="//home/sweav003/CHB/CHActivation_Mkhalid/non_select/G09-Scheme8_1.com.o9709984.tmp/"
 Entering Link 1 = /cm/shared/apps/gaussian/g09revD.01/g09/l1.exe PID=     23579.
  
 Copyright (c) 1988,1990,1992,1993,1995,1998,2003,2009,2013,
            Gaussian, Inc.  All Rights Reserved.
  
 This is part of the Gaussian(R) 09 program.  It is based on
 the Gaussian(R) 03 system (copyright 2003, Gaussian, Inc.),
 the Gaussian(R) 98 system (copyright 1998, Gaussian, Inc.),
 the Gaussian(R) 94 system (copyright 1995, Gaussian, Inc.),
 the Gaussian 92(TM) system (copyright 1992, Gaussian, Inc.),
 the Gaussian 90(TM) system (copyright 1990, Gaussian, Inc.),
 the Gaussian 88(TM) system (copyright 1988, Gaussian, Inc.),
 the Gaussian 86(TM) system (copyright 1986, Carnegie Mellon
 University), and the Gaussian 82(TM) system (copyright 1983,
 Carnegie Mellon University). Gaussian is a federally registered
 trademark of Gaussian, Inc.
  
 This software contains proprietary and confidential information,
 including trade secrets, belonging to Gaussian, Inc.
  
 This software is provided under written license and may be
 used, copied, transmitted, or stored only in accord with that
 written license.
  
 The following legend is applicable only to US Government
 contracts under FAR:
  
                    RESTRICTED RIGHTS LEGEND
  
 Use, reproduction and disclosure by the US Government is
 subject to restrictions as set forth in subparagraphs (a)
 and (c) of the Commercial Computer Software - Restricted
 Rights clause in FAR 52.227-19.
  
 Gaussian, Inc.
 340 Quinnipiac St., Bldg. 40, Wallingford CT 06492
  
  
 ---------------------------------------------------------------
 Warning -- This program may not be used in any manner that
 competes with the business of Gaussian, Inc. or will provide
 assistance to any competitor of Gaussian, Inc.  The licensee
 of this program is prohibited from giving any competitor of
 Gaussian, Inc. access to this program.  By using this program,
 the user acknowledges that Gaussian, Inc. is engaged in the
 business of creating and licensing software in the field of
 computational chemistry and represents and warrants to the
 licensee that it is not a competitor of Gaussian, Inc. and that
 it will not use this program in any manner prohibited above.
 ---------------------------------------------------------------
  

 Cite this work as:
 Gaussian 09, Revision D.01,
 M. J. Frisch, G. W. Trucks, H. B. Schlegel, G. E. Scuseria, 
 M. A. Robb, J. R. Cheeseman, G. Scalmani, V. Barone, B. Mennucci, 
 G. A. Petersson, H. Nakatsuji, M. Caricato, X. Li, H. P. Hratchian, 
 A. F. Izmaylov, J. Bloino, G. Zheng, J. L. Sonnenberg, M. Hada, 
 M. Ehara, K. Toyota, R. Fukuda, J. Hasegawa, M. Ishida, T. Nakajima, 
 Y. Honda, O. Kitao, H. Nakai, T. Vreven, J. A. Montgomery, Jr., 
 J. E. Peralta, F. Ogliaro, M. Bearpark, J. J. Heyd, E. Brothers, 
 K. N. Kudin, V. N. Staroverov, T. Keith, R. Kobayashi, J. Normand, 
 K. Raghavachari, A. Rendell, J. C. Burant, S. S. Iyengar, J. Tomasi, 
 M. Cossi, N. Rega, J. M. Millam, M. Klene, J. E. Knox, J. B. Cross, 
 V. Bakken, C. Adamo, J. Jaramillo, R. Gomperts, R. E. Stratmann, 
 O. Yazyev, A. J. Austin, R. Cammi, C. Pomelli, J. W. Ochterski, 
 R. L. Martin, K. Morokuma, V. G. Zakrzewski, G. A. Voth, 
 P. Salvador, J. J. Dannenberg, S. Dapprich, A. D. Daniels, 
 O. Farkas, J. B. Foresman, J. V. Ortiz, J. Cioslowski, 
 and D. J. Fox, Gaussian, Inc., Wallingford CT, 2013.
 
 ******************************************
 Gaussian 09:  ES64L-G09RevD.01 24-Apr-2013
                22-Feb-2022 
 ******************************************
 %nprocshared=20
 Will use up to   20 processors via shared memory.
 %mem=100MW
 %chk=Scheme8_1.chk
 ----------------------------------------------------------------------
 # opt freq b3lyp/6-311+g(d,p) geom=connectivity pop=(hirshfeld,npa,mbs
 ,chelpg)
 ----------------------------------------------------------------------
 1/14=-1,18=20,19=15,26=3,38=1,57=2/1,3;
 2/9=110,12=2,17=6,18=5,40=1/2;
 3/5=4,6=6,7=111,11=2,16=1,25=1,30=1,71=1,74=-5/1,2,3;
 4//1;
 5/5=2,38=5/2;
 6/7=2,8=2,9=2,10=2,15=8,20=3,27=100,28=1,40=-1,79=1/1,2,7;
 7//1,2,3,16;
 1/14=-1,18=20,19=15,26=3/3(2);
 2/9=110/2;
 99//99;
 2/9=110/2;
 3/5=4,6=6,7=111,11=2,16=1,25=1,30=1,71=1,74=-5/1,2,3;
 4/5=5,16=3,69=1/1;
 5/5=2,38=5/2;
 7//1,2,3,16;
 1/14=-1,18=20,19=15,26=3/3(-5);
 2/9=110/2;
 6/7=2,8=2,9=2,10=2,15=8,19=2,20=3,27=100,28=1,40=-1,79=1/1,2,7;
 99/9=1/99;
 -------------------
 Title Card Required
 -------------------
 Symbolic Z-matrix:
 Charge =  0 Multiplicity = 1
 C                     1.60629  -1.89131   0.00291 
 C                     3.11303  -1.89128   0.00284 
 H                     1.22912  -2.43958   0.90639 
 H                     1.22905  -2.44328  -0.8983 
 H                     3.50183  -2.93807   0.00502 
 H                     3.50734  -1.37041  -0.90312 
 H                     3.50742  -1.36661   0.90658 
 C                    -0.4913   -0.48346   0. 
 C                    -1.01564   0.92908   0. 
 H                    -0.84397  -1.03519   0.90484 
 H                    -0.84387  -1.03507  -0.90498 
 C                    -2.52953   0.96188  -0.00018 
 H                    -0.63124   1.47411   0.90244 
 H                    -0.64823   1.46396  -0.91549 
 C                    -3.05385   2.37445  -0.00011 
 H                    -2.91392   0.41687  -0.9026 
 H                    -2.91408   0.41674   0.9021 
 H                    -4.17052   2.37466  -0.00026 
 H                    -2.70111   2.92598   0.90484 
 H                    -2.70087   2.92616  -0.90487 
 O                     1.0487   -0.48346   0. 
 

 GradGradGradGradGradGradGradGradGradGradGradGradGradGradGradGradGradGrad
 Berny optimization.
 Initialization pass.
                           ----------------------------
                           !    Initial Parameters    !
                           ! (Angstroms and Degrees)  !
 --------------------------                            --------------------------
 ! Name  Definition              Value          Derivative Info.                !
 --------------------------------------------------------------------------------
 ! R1    R(1,2)                  1.5067         estimate D2E/DX2                !
 ! R2    R(1,3)                  1.1221         estimate D2E/DX2                !
 ! R3    R(1,4)                  1.1221         estimate D2E/DX2                !
 ! R4    R(1,21)                 1.5142         estimate D2E/DX2                !
 ! R5    R(2,5)                  1.1167         estimate D2E/DX2                !
 ! R6    R(2,6)                  1.1169         estimate D2E/DX2                !
 ! R7    R(2,7)                  1.1169         estimate D2E/DX2                !
 ! R8    R(8,9)                  1.5067         estimate D2E/DX2                !
 ! R9    R(8,10)                 1.1169         estimate D2E/DX2                !
 ! R10   R(8,11)                 1.1169         estimate D2E/DX2                !
 ! R11   R(8,21)                 1.54           estimate D2E/DX2                !
 ! R12   R(9,12)                 1.5142         estimate D2E/DX2                !
 ! R13   R(9,13)                 1.1221         estimate D2E/DX2                !
 ! R14   R(9,14)                 1.1221         estimate D2E/DX2                !
 ! R15   R(12,15)                1.5067         estimate D2E/DX2                !
 ! R16   R(12,16)                1.1221         estimate D2E/DX2                !
 ! R17   R(12,17)                1.1221         estimate D2E/DX2                !
 ! R18   R(15,18)                1.1167         estimate D2E/DX2                !
 ! R19   R(15,19)                1.1169         estimate D2E/DX2                !
 ! R20   R(15,20)                1.1169         estimate D2E/DX2                !
 ! A1    A(2,1,3)              109.6438         estimate D2E/DX2                !
 ! A2    A(2,1,4)              109.643          estimate D2E/DX2                !
 ! A3    A(2,1,21)             111.6054         estimate D2E/DX2                !
 ! A4    A(3,1,4)              107.0555         estimate D2E/DX2                !
 ! A5    A(3,1,21)             109.3931         estimate D2E/DX2                !
 ! A6    A(4,1,21)             109.3904         estimate D2E/DX2                !
 ! A7    A(1,2,5)              110.375          estimate D2E/DX2                !
 ! A8    A(1,2,6)              110.6752         estimate D2E/DX2                !
 ! A9    A(1,2,7)              110.6753         estimate D2E/DX2                !
 ! A10   A(5,2,6)              108.4103         estimate D2E/DX2                !
 ! A11   A(5,2,7)              108.4105         estimate D2E/DX2                !
 ! A12   A(6,2,7)              108.2146         estimate D2E/DX2                !
 ! A13   A(9,8,10)             110.684          estimate D2E/DX2                !
 ! A14   A(9,8,11)             110.6793         estimate D2E/DX2                !
 ! A15   A(9,8,21)             110.3651         estimate D2E/DX2                !
 ! A16   A(10,8,11)            108.2253         estimate D2E/DX2                !
 ! A17   A(10,8,21)            108.4063         estimate D2E/DX2                !
 ! A18   A(11,8,21)            108.4007         estimate D2E/DX2                !
 ! A19   A(8,9,12)             111.6065         estimate D2E/DX2                !
 ! A20   A(8,9,13)             109.6417         estimate D2E/DX2                !
 ! A21   A(8,9,14)             109.4465         estimate D2E/DX2                !
 ! A22   A(12,9,13)            109.3929         estimate D2E/DX2                !
 ! A23   A(12,9,14)            108.4766         estimate D2E/DX2                !
 ! A24   A(13,9,14)            108.2056         estimate D2E/DX2                !
 ! A25   A(9,12,15)            111.6054         estimate D2E/DX2                !
 ! A26   A(9,12,16)            109.3931         estimate D2E/DX2                !
 ! A27   A(9,12,17)            109.3904         estimate D2E/DX2                !
 ! A28   A(15,12,16)           109.6438         estimate D2E/DX2                !
 ! A29   A(15,12,17)           109.643          estimate D2E/DX2                !
 ! A30   A(16,12,17)           107.0555         estimate D2E/DX2                !
 ! A31   A(12,15,18)           110.375          estimate D2E/DX2                !
 ! A32   A(12,15,19)           110.6752         estimate D2E/DX2                !
 ! A33   A(12,15,20)           110.6753         estimate D2E/DX2                !
 ! A34   A(18,15,19)           108.4103         estimate D2E/DX2                !
 ! A35   A(18,15,20)           108.4105         estimate D2E/DX2                !
 ! A36   A(19,15,20)           108.2146         estimate D2E/DX2                !
 ! A37   A(1,21,8)             111.6065         estimate D2E/DX2                !
 ! D1    D(3,1,2,5)             58.6285         estimate D2E/DX2                !
 ! D2    D(3,1,2,6)            178.6448         estimate D2E/DX2                !
 ! D3    D(3,1,2,7)            -61.3881         estimate D2E/DX2                !
 ! D4    D(4,1,2,5)            -58.6342         estimate D2E/DX2                !
 ! D5    D(4,1,2,6)             61.3821         estimate D2E/DX2                !
 ! D6    D(4,1,2,7)           -178.6508         estimate D2E/DX2                !
 ! D7    D(21,1,2,5)           179.9991         estimate D2E/DX2                !
 ! D8    D(21,1,2,6)           -59.9846         estimate D2E/DX2                !
 ! D9    D(21,1,2,7)            59.9826         estimate D2E/DX2                !
 ! D10   D(2,1,21,8)           179.9973         estimate D2E/DX2                !
 ! D11   D(3,1,21,8)           -58.4866         estimate D2E/DX2                !
 ! D12   D(4,1,21,8)            58.4842         estimate D2E/DX2                !
 ! D13   D(10,8,9,12)          -59.9967         estimate D2E/DX2                !
 ! D14   D(10,8,9,13)           61.373          estimate D2E/DX2                !
 ! D15   D(10,8,9,14)          179.9156         estimate D2E/DX2                !
 ! D16   D(11,8,9,12)           59.9922         estimate D2E/DX2                !
 ! D17   D(11,8,9,13)         -178.6381         estimate D2E/DX2                !
 ! D18   D(11,8,9,14)          -60.0955         estimate D2E/DX2                !
 ! D19   D(21,8,9,12)          179.9928         estimate D2E/DX2                !
 ! D20   D(21,8,9,13)          -58.6375         estimate D2E/DX2                !
 ! D21   D(21,8,9,14)           59.905          estimate D2E/DX2                !
 ! D22   D(9,8,21,1)           179.8817         estimate D2E/DX2                !
 ! D23   D(10,8,21,1)           58.5088         estimate D2E/DX2                !
 ! D24   D(11,8,21,1)          -58.7547         estimate D2E/DX2                !
 ! D25   D(8,9,12,15)          179.9973         estimate D2E/DX2                !
 ! D26   D(8,9,12,16)          -58.4866         estimate D2E/DX2                !
 ! D27   D(8,9,12,17)           58.4842         estimate D2E/DX2                !
 ! D28   D(13,9,12,15)          58.4834         estimate D2E/DX2                !
 ! D29   D(13,9,12,16)         179.9995         estimate D2E/DX2                !
 ! D30   D(13,9,12,17)         -63.0297         estimate D2E/DX2                !
 ! D31   D(14,9,12,15)         -59.3463         estimate D2E/DX2                !
 ! D32   D(14,9,12,16)          62.1698         estimate D2E/DX2                !
 ! D33   D(14,9,12,17)         179.1406         estimate D2E/DX2                !
 ! D34   D(9,12,15,18)         179.9991         estimate D2E/DX2                !
 ! D35   D(9,12,15,19)         -59.9846         estimate D2E/DX2                !
 ! D36   D(9,12,15,20)          59.9826         estimate D2E/DX2                !
 ! D37   D(16,12,15,18)         58.6285         estimate D2E/DX2                !
 ! D38   D(16,12,15,19)        178.6448         estimate D2E/DX2                !
 ! D39   D(16,12,15,20)        -61.3881         estimate D2E/DX2                !
 ! D40   D(17,12,15,18)        -58.6342         estimate D2E/DX2                !
 ! D41   D(17,12,15,19)         61.3821         estimate D2E/DX2                !
 ! D42   D(17,12,15,20)       -178.6508         estimate D2E/DX2                !
 --------------------------------------------------------------------------------
 Trust Radius=3.00D-01 FncErr=1.00D-07 GrdErr=1.00D-06
 Number of steps in this run=    109 maximum allowed number of steps=    126.
 GradGradGradGradGradGradGradGradGradGradGradGradGradGradGradGradGradGrad

                          Input orientation:                          
 ---------------------------------------------------------------------
 Center     Atomic      Atomic             Coordinates (Angstroms)
 Number     Number       Type             X           Y           Z
 ---------------------------------------------------------------------
      1          6           0        1.606294   -1.891309    0.002908
      2          6           0        3.113028   -1.891281    0.002843
      3          1           0        1.229119   -2.439582    0.906391
      4          1           0        1.229055   -2.443282   -0.898298
      5          1           0        3.501830   -2.938074    0.005022
      6          1           0        3.507339   -1.370410   -0.903125
      7          1           0        3.507419   -1.366610    0.906580
      8          6           0       -0.491297   -0.483461    0.000000
      9          6           0       -1.015638    0.929078    0.000000
     10          1           0       -0.843971   -1.035191    0.904842
     11          1           0       -0.843873   -1.035071   -0.904976
     12          6           0       -2.529532    0.961882   -0.000178
     13          1           0       -0.631244    1.474110    0.902436
     14          1           0       -0.648228    1.463964   -0.915492
     15          6           0       -3.053851    2.374446   -0.000113
     16          1           0       -2.913919    0.416874   -0.902596
     17          1           0       -2.914085    0.416744    0.902097
     18          1           0       -4.170520    2.374659   -0.000262
     19          1           0       -2.701114    2.925985    0.904843
     20          1           0       -2.700869    2.926161   -0.904866
     21          8           0        1.048703   -0.483461    0.000000
 ---------------------------------------------------------------------
                    Distance matrix (angstroms):
                    1          2          3          4          5
     1  C    0.000000
     2  C    1.506734   0.000000
     3  H    1.122117   2.160126   0.000000
     4  H    1.122122   2.160119   1.804693   0.000000
     5  H    2.165359   1.116669   2.495231   2.495258   0.000000
     6  H    2.169378   1.116944   3.099639   2.518264   1.811720
     7  H    2.169380   1.116944   2.518317   3.099637   1.811723
     8  C    2.526249   3.869512   2.758221   2.758161   4.687240
     9  C    3.850859   5.000031   4.148294   4.149506   5.946630
    10  H    2.747767   4.147811   2.504000   3.087308   4.828729
    11  H    2.749675   4.149011   3.090468   2.506019   4.830595
    12  C    5.024516   6.322897   5.149687   5.150606   7.182410
    13  H    4.140262   5.114166   4.333353   4.695670   6.111876
    14  H    4.145381   5.123285   4.699081   4.334866   6.119499
    15  C    6.317723   7.498455   6.506954   6.508496   8.438001
    16  H    5.155576   6.517014   5.347572   5.034356   7.296662
    17  H    5.154558   6.516266   5.032370   5.346660   7.295444
    18  H    7.181230   8.440872   7.290750   7.292080   9.332208
    19  H    6.524842   7.604202   6.651017   6.893952   8.583320
    20  H    6.525620   7.604806   6.893232   6.653966   8.584324
    21  O    1.514250   2.498680   2.163447   2.163416   3.470301
                    6          7          8          9         10
     6  H    0.000000
     7  H    1.809709   0.000000
     8  C    4.194211   4.194231   0.000000
     9  C    5.153698   5.152680   1.506718   0.000000
    10  H    4.723877   4.363993   1.116927   2.169462   0.000000
    11  H    4.364115   4.724975   1.116945   2.169417   1.809818
    12  C    6.534425   6.533671   2.498683   1.514250   2.765588
    13  H    5.336592   5.019785   2.160106   1.122144   2.518303
    14  H    5.030166   5.348037   2.157595   1.122149   3.098017
    15  C    7.608456   7.607093   3.838530   2.498680   4.162708
    16  H    6.665353   6.905614   2.737586   2.163447   3.108055
    17  H    6.905608   6.664539   2.737525   2.163416   2.528536
    18  H    8.590123   8.588958   4.658919   3.470301   4.848940
    19  H    7.763546   7.547996   4.162493   2.765358   4.374916
    20  H    7.549991   7.762220   4.162512   2.765344   4.734493
    21  O    2.765358   2.765344   1.540000   2.501353   2.169184
                   11         12         13         14         15
    11  H    0.000000
    12  C    2.765489   0.000000
    13  H    3.099668   2.163466   0.000000
    14  H    2.506704   2.151555   1.818036   0.000000
    15  C    4.162642   1.506734   2.737558   2.730187   0.000000
    16  H    2.528486   1.122117   3.096206   2.495980   2.160126
    17  H    3.107902   1.122122   2.515826   3.087783   2.160119
    18  H    4.848850   2.165359   3.761958   3.751473   1.116669
    19  H    4.734422   2.169378   2.528301   3.108933   1.116944
    20  H    4.374905   2.169380   3.107755   2.520211   1.116944
    21  O    2.169124   3.859116   2.732891   2.740468   4.999858
                   16         17         18         19         20
    16  H    0.000000
    17  H    1.804693   0.000000
    18  H    2.495231   2.495258   0.000000
    19  H    3.099639   2.518264   1.811720   0.000000
    20  H    2.518317   3.099637   1.811723   1.809709   0.000000
    21  O    4.162649   4.162671   5.950557   5.148221   5.148164
                   21
    21  O    0.000000
 Stoichiometry    C6H14O
 Framework group  C1[X(C6H14O)]
 Deg. of freedom    57
 Full point group                 C1      NOp   1
 Largest Abelian subgroup         C1      NOp   1
 Largest concise Abelian subgroup C1      NOp   1
                         Standard orientation:                         
 ---------------------------------------------------------------------
 Center     Atomic      Atomic             Coordinates (Angstroms)
 Number     Number       Type             X           Y           Z
 ---------------------------------------------------------------------
      1          6           0        2.513727    0.458635   -0.001100
      2          6           0        3.749781   -0.403001   -0.000315
      3          1           0        2.518282    1.123994   -0.904660
      4          1           0        2.519446    1.127283    0.900030
      5          1           0        4.667342    0.233417   -0.002112
      6          1           0        3.774953   -1.055680    0.905744
      7          1           0        3.773748   -1.059059   -0.903962
      8          6           0       -0.012128    0.503176    0.000543
      9          6           0       -1.250027   -0.355780    0.000029
     10          1           0        0.014504    1.157362   -0.904364
     11          1           0        0.013614    1.157424    0.905454
     12          6           0       -2.510730    0.483016   -0.000522
     13          1           0       -1.245906   -1.022824   -0.902326
     14          1           0       -1.254944   -1.004572    0.915596
     15          6           0       -3.748625   -0.375973   -0.001102
     16          1           0       -2.514858    1.150038    0.901814
     17          1           0       -2.514020    1.150023   -0.902879
     18          1           0       -4.664822    0.262410   -0.001486
     19          1           0       -3.774193   -1.030254   -0.905993
     20          1           0       -3.774996   -1.030322    0.903716
     21          8           0        1.251232   -0.377459    0.001279
 ---------------------------------------------------------------------
 Rotational constants (GHZ):     12.5737224      0.7515246      0.7294030
 Standard basis: 6-311+G(d,p) (5D, 7F)
 There are   245 symmetry adapted cartesian basis functions of A   symmetry.
 There are   238 symmetry adapted basis functions of A   symmetry.
   238 basis functions,   364 primitive gaussians,   245 cartesian basis functions
    29 alpha electrons       29 beta electrons
       nuclear repulsion energy       306.9351866805 Hartrees.
 NAtoms=   21 NActive=   21 NUniq=   21 SFac= 1.00D+00 NAtFMM=   60 NAOKFM=F Big=F
 Integral buffers will be    131072 words long.
 Raffenetti 2 integral format.
 Two-electron integral symmetry is turned on.
 One-electron integrals computed using PRISM.
 NBasis=   238 RedAO= T EigKep=  7.32D-06  NBF=   238
 NBsUse=   238 1.00D-06 EigRej= -1.00D+00 NBFU=   238
 ExpMin= 4.38D-02 ExpMax= 8.59D+03 ExpMxC= 1.30D+03 IAcc=2 IRadAn=         4 AccDes= 0.00D+00
 Harris functional with IExCor=  402 and IRadAn=       4 diagonalized for initial guess.
 HarFok:  IExCor=  402 AccDes= 0.00D+00 IRadAn=         4 IDoV= 1 UseB2=F ITyADJ=14
 ICtDFT=  3500011 ScaDFX=  1.000000  1.000000  1.000000  1.000000
 FoFCou: FMM=F IPFlag=           0 FMFlag=      100000 FMFlg1=           0
         NFxFlg=           0 DoJE=T BraDBF=F KetDBF=T FulRan=T
         wScrn=  0.000000 ICntrl=     500 IOpCl=  0 I1Cent=   200000004 NGrid=           0
         NMat0=    1 NMatS0=      1 NMatT0=    0 NMatD0=    1 NMtDS0=    0 NMtDT0=    0
 Petite list used in FoFCou.
 Requested convergence on RMS density matrix=1.00D-08 within 128 cycles.
 Requested convergence on MAX density matrix=1.00D-06.
 Requested convergence on             energy=1.00D-06.
 No special actions if energy rises.
 SCF Done:  E(RB3LYP) =  -312.367819337     A.U. after   11 cycles
            NFock= 11  Conv=0.75D-08     -V/T= 2.0066

 **********************************************************************

            Population analysis using the SCF density.

 **********************************************************************

 Orbital symmetries:
       Occupied  (A) (A) (A) (A) (A) (A) (A) (A) (A) (A) (A) (A)
                 (A) (A) (A) (A) (A) (A) (A) (A) (A) (A) (A) (A)
                 (A) (A) (A) (A) (A)
       Virtual   (A) (A) (A) (A) (A) (A) (A) (A) (A) (A) (A) (A)
                 (A) (A) (A) (A) (A) (A) (A) (A) (A) (A) (A) (A)
                 (A) (A) (A) (A) (A) (A) (A) (A) (A) (A) (A) (A)
                 (A) (A) (A) (A) (A) (A) (A) (A) (A) (A) (A) (A)
                 (A) (A) (A) (A) (A) (A) (A) (A) (A) (A) (A) (A)
                 (A) (A) (A) (A) (A) (A) (A) (A) (A) (A) (A) (A)
                 (A) (A) (A) (A) (A) (A) (A) (A) (A) (A) (A) (A)
                 (A) (A) (A) (A) (A) (A) (A) (A) (A) (A) (A) (A)
                 (A) (A) (A) (A) (A) (A) (A) (A) (A) (A) (A) (A)
                 (A) (A) (A) (A) (A) (A) (A) (A) (A) (A) (A) (A)
                 (A) (A) (A) (A) (A) (A) (A) (A) (A) (A) (A) (A)
                 (A) (A) (A) (A) (A) (A) (A) (A) (A) (A) (A) (A)
                 (A) (A) (A) (A) (A) (A) (A) (A) (A) (A) (A) (A)
                 (A) (A) (A) (A) (A) (A) (A) (A) (A) (A) (A) (A)
                 (A) (A) (A) (A) (A) (A) (A) (A) (A) (A) (A) (A)
                 (A) (A) (A) (A) (A) (A) (A) (A) (A) (A) (A) (A)
                 (A) (A) (A) (A) (A) (A) (A) (A) (A) (A) (A) (A)
                 (A) (A) (A) (A) (A)
 The electronic state is 1-A.
 Alpha  occ. eigenvalues --  -19.11959 -10.22245 -10.22189 -10.17512 -10.17151
 Alpha  occ. eigenvalues --  -10.16948 -10.16730  -0.97863  -0.80667  -0.75528
 Alpha  occ. eigenvalues --   -0.71548  -0.62188  -0.59823  -0.57679  -0.48703
 Alpha  occ. eigenvalues --   -0.46829  -0.45913  -0.44214  -0.42499  -0.40336
 Alpha  occ. eigenvalues --   -0.39157  -0.37715  -0.36838  -0.34716  -0.34499
 Alpha  occ. eigenvalues --   -0.33518  -0.32856  -0.31537  -0.25726
 Alpha virt. eigenvalues --    0.00547   0.01190   0.01978   0.02717   0.03418
 Alpha virt. eigenvalues --    0.03676   0.04802   0.05083   0.05971   0.06633
 Alpha virt. eigenvalues --    0.06988   0.07588   0.08038   0.08670   0.09277
 Alpha virt. eigenvalues --    0.09963   0.10358   0.11726   0.13323   0.14582
 Alpha virt. eigenvalues --    0.14832   0.15055   0.16188   0.16324   0.17126
 Alpha virt. eigenvalues --    0.17367   0.18015   0.18066   0.19027   0.20189
 Alpha virt. eigenvalues --    0.20503   0.21608   0.22085   0.22521   0.23316
 Alpha virt. eigenvalues --    0.23778   0.23857   0.25104   0.25518   0.27688
 Alpha virt. eigenvalues --    0.28564   0.28904   0.29259   0.31074   0.31963
 Alpha virt. eigenvalues --    0.33326   0.36814   0.39499   0.40656   0.40979
 Alpha virt. eigenvalues --    0.41960   0.43243   0.45239   0.47390   0.48907
 Alpha virt. eigenvalues --    0.48990   0.50336   0.52509   0.54011   0.56313
 Alpha virt. eigenvalues --    0.58287   0.58736   0.60231   0.61438   0.62595
 Alpha virt. eigenvalues --    0.62891   0.63121   0.63987   0.64651   0.65755
 Alpha virt. eigenvalues --    0.65886   0.66982   0.67395   0.67899   0.69416
 Alpha virt. eigenvalues --    0.71671   0.72533   0.73740   0.76044   0.77303
 Alpha virt. eigenvalues --    0.83949   0.91982   0.93132   0.95796   0.96544
 Alpha virt. eigenvalues --    1.00036   1.01407   1.01516   1.05616   1.07908
 Alpha virt. eigenvalues --    1.15707   1.16344   1.22926   1.23890   1.25127
 Alpha virt. eigenvalues --    1.25960   1.27042   1.29861   1.41596   1.43812
 Alpha virt. eigenvalues --    1.44260   1.46155   1.50118   1.50771   1.51090
 Alpha virt. eigenvalues --    1.52349   1.53047   1.53278   1.55703   1.56715
 Alpha virt. eigenvalues --    1.57286   1.57861   1.59679   1.59889   1.61670
 Alpha virt. eigenvalues --    1.63150   1.65407   1.65437   1.67614   1.68618
 Alpha virt. eigenvalues --    1.71132   1.72837   1.73046   1.74201   1.77357
 Alpha virt. eigenvalues --    1.80883   1.82460   1.85871   1.86748   1.88359
 Alpha virt. eigenvalues --    1.97001   1.97825   2.00401   2.02688   2.05388
 Alpha virt. eigenvalues --    2.05657   2.09329   2.14023   2.14670   2.17318
 Alpha virt. eigenvalues --    2.18903   2.21336   2.23145   2.27004   2.30443
 Alpha virt. eigenvalues --    2.31161   2.32669   2.34871   2.40135   2.41878
 Alpha virt. eigenvalues --    2.44800   2.45183   2.46355   2.47772   2.49501
 Alpha virt. eigenvalues --    2.49966   2.52099   2.53189   2.54330   2.56216
 Alpha virt. eigenvalues --    2.58731   2.60603   2.61411   2.61705   2.62096
 Alpha virt. eigenvalues --    2.65366   2.67795   2.68197   2.71375   2.74041
 Alpha virt. eigenvalues --    2.77084   2.78753   2.81797   2.84190   2.86648
 Alpha virt. eigenvalues --    2.90564   2.92806   2.94404   3.04073   3.09220
 Alpha virt. eigenvalues --    3.12021   3.13859   3.24891   3.28112   3.43624
 Alpha virt. eigenvalues --    3.72800   3.74267   3.74946   3.75995   3.76323
 Alpha virt. eigenvalues --    3.77060   3.77451   3.83114   3.94085   3.97125
 Alpha virt. eigenvalues --    4.05651   4.18251   4.20024   4.32439   5.04274
 Alpha virt. eigenvalues --    5.26872   5.51146  23.79799  23.80537  23.86608
 Alpha virt. eigenvalues --   23.86726  23.90258  23.91581  49.92143
          Condensed to atoms (all electrons):
               1          2          3          4          5          6
     1  C    5.205843   0.111093   0.409613   0.409881  -0.051809  -0.030476
     2  C    0.111093   5.348831  -0.036421  -0.036379   0.412659   0.402481
     3  H    0.409613  -0.036421   0.617374  -0.060888  -0.004546   0.009108
     4  H    0.409881  -0.036379  -0.060888   0.617416  -0.004538  -0.010783
     5  H   -0.051809   0.412659  -0.004546  -0.004538   0.550753  -0.027186
     6  H   -0.030476   0.402481   0.009108  -0.010783  -0.027186   0.543738
     7  H   -0.030580   0.402623  -0.010776   0.009107  -0.027185  -0.028146
     8  C   -0.083839  -0.012974  -0.018861  -0.019158  -0.000241  -0.001692
     9  C   -0.011304  -0.028863   0.003372   0.003541  -0.000343   0.001165
    10  H    0.005268   0.006213   0.010778  -0.004420   0.000035   0.000039
    11  H    0.005541   0.006267  -0.004406   0.010732   0.000035  -0.000179
    12  C   -0.021348   0.006802  -0.000146  -0.000197  -0.000012  -0.000221
    13  H    0.000898   0.000034  -0.000101   0.000031   0.000002  -0.000003
    14  H    0.000815  -0.000008   0.000031  -0.000101   0.000002  -0.000019
    15  C   -0.003284   0.000601  -0.000057  -0.000061  -0.000003  -0.000006
    16  H    0.000003  -0.000034   0.000002  -0.000012   0.000000   0.000000
    17  H   -0.000021  -0.000038  -0.000011   0.000002   0.000000   0.000000
    18  H    0.000048   0.000005   0.000000   0.000000   0.000000   0.000000
    19  H   -0.000097  -0.000019   0.000000   0.000000   0.000000   0.000000
    20  H   -0.000101  -0.000020   0.000000   0.000000   0.000000   0.000000
    21  O    0.094659  -0.035331  -0.041261  -0.041329   0.012218  -0.004806
               7          8          9         10         11         12
     1  C   -0.030580  -0.083839  -0.011304   0.005268   0.005541  -0.021348
     2  C    0.402623  -0.012974  -0.028863   0.006213   0.006267   0.006802
     3  H   -0.010776  -0.018861   0.003372   0.010778  -0.004406  -0.000146
     4  H    0.009107  -0.019158   0.003541  -0.004420   0.010732  -0.000197
     5  H   -0.027185  -0.000241  -0.000343   0.000035   0.000035  -0.000012
     6  H   -0.028146  -0.001692   0.001165   0.000039  -0.000179  -0.000221
     7  H    0.543753  -0.001694   0.001122  -0.000178   0.000038  -0.000222
     8  C   -0.001694   5.809657  -0.415807   0.412611   0.408892   0.284721
     9  C    0.001122  -0.415807   6.261848  -0.061795  -0.056448  -0.318317
    10  H   -0.000178   0.412611  -0.061795   0.608853  -0.060423  -0.011116
    11  H    0.000038   0.408892  -0.056448  -0.060423   0.608511  -0.012400
    12  C   -0.000222   0.284721  -0.318317  -0.011116  -0.012400   5.602442
    13  H   -0.000020  -0.081282   0.485886  -0.010796   0.008717  -0.077569
    14  H   -0.000003  -0.084516   0.489488   0.008847  -0.011169  -0.080158
    15  C   -0.000007  -0.168935   0.131915  -0.001903  -0.001797  -0.042958
    16  H    0.000000  -0.002921  -0.057008  -0.001649   0.005432   0.436069
    17  H    0.000000  -0.001417  -0.061742   0.005578  -0.001655   0.438230
    18  H    0.000000   0.005371   0.028294  -0.000004  -0.000003  -0.053342
    19  H    0.000000  -0.000079  -0.026393   0.000013  -0.000013  -0.027174
    20  H    0.000000   0.000191  -0.027628  -0.000012   0.000014  -0.025832
    21  O   -0.004825   0.166780  -0.120744  -0.040625  -0.040425   0.044316
              13         14         15         16         17         18
     1  C    0.000898   0.000815  -0.003284   0.000003  -0.000021   0.000048
     2  C    0.000034  -0.000008   0.000601  -0.000034  -0.000038   0.000005
     3  H   -0.000101   0.000031  -0.000057   0.000002  -0.000011   0.000000
     4  H    0.000031  -0.000101  -0.000061  -0.000012   0.000002   0.000000
     5  H    0.000002   0.000002  -0.000003   0.000000   0.000000   0.000000
     6  H   -0.000003  -0.000019  -0.000006   0.000000   0.000000   0.000000
     7  H   -0.000020  -0.000003  -0.000007   0.000000   0.000000   0.000000
     8  C   -0.081282  -0.084516  -0.168935  -0.002921  -0.001417   0.005371
     9  C    0.485886   0.489488   0.131915  -0.057008  -0.061742   0.028294
    10  H   -0.010796   0.008847  -0.001903  -0.001649   0.005578  -0.000004
    11  H    0.008717  -0.011169  -0.001797   0.005432  -0.001655  -0.000003
    12  C   -0.077569  -0.080158  -0.042958   0.436069   0.438230  -0.053342
    13  H    0.549833  -0.035492   0.006936   0.008748  -0.009672  -0.000052
    14  H   -0.035492   0.552322   0.007423  -0.010236   0.009017  -0.000071
    15  C    0.006936   0.007423   5.538696  -0.049141  -0.049064   0.389286
    16  H    0.008748  -0.010236  -0.049141   0.586563  -0.042808  -0.005634
    17  H   -0.009672   0.009017  -0.049064  -0.042808   0.587122  -0.005692
    18  H   -0.000052  -0.000071   0.389286  -0.005634  -0.005692   0.556266
    19  H    0.005437  -0.001267   0.413679   0.008905  -0.009738  -0.025943
    20  H   -0.001236   0.005607   0.413167  -0.009731   0.008913  -0.025980
    21  O    0.001338   0.001282  -0.001495  -0.000511  -0.000546   0.000077
              19         20         21
     1  C   -0.000097  -0.000101   0.094659
     2  C   -0.000019  -0.000020  -0.035331
     3  H    0.000000   0.000000  -0.041261
     4  H    0.000000   0.000000  -0.041329
     5  H    0.000000   0.000000   0.012218
     6  H    0.000000   0.000000  -0.004806
     7  H    0.000000   0.000000  -0.004825
     8  C   -0.000079   0.000191   0.166780
     9  C   -0.026393  -0.027628  -0.120744
    10  H    0.000013  -0.000012  -0.040625
    11  H   -0.000013   0.000014  -0.040425
    12  C   -0.027174  -0.025832   0.044316
    13  H    0.005437  -0.001236   0.001338
    14  H   -0.001267   0.005607   0.001282
    15  C    0.413679   0.413167  -0.001495
    16  H    0.008905  -0.009731  -0.000511
    17  H   -0.009738   0.008913  -0.000546
    18  H   -0.025943  -0.025980   0.000077
    19  H    0.562528  -0.034755  -0.000087
    20  H   -0.034755   0.562705  -0.000088
    21  O   -0.000087  -0.000088   8.242627
 Mulliken charges:
               1
     1  C   -0.010803
     2  C   -0.547523
     3  H    0.127197
     4  H    0.127158
     5  H    0.140160
     6  H    0.146988
     7  H    0.146992
     8  C   -0.194805
     9  C   -0.220240
    10  H    0.134685
    11  H    0.134738
    12  C   -0.141569
    13  H    0.148365
    14  H    0.148206
    15  C   -0.582994
    16  H    0.133963
    17  H    0.133544
    18  H    0.137375
    19  H    0.135002
    20  H    0.134786
    21  O   -0.231225
 Sum of Mulliken charges =   0.00000
 Mulliken charges with hydrogens summed into heavy atoms:
               1
     1  C    0.243551
     2  C   -0.113383
     8  C    0.074618
     9  C    0.076331
    12  C    0.125939
    15  C   -0.175831
    21  O   -0.231225
 Electronic spatial extent (au):  <R**2>=           1629.7103
 Charge=              0.0000 electrons
 Dipole moment (field-independent basis, Debye):
    X=             -0.1763    Y=              1.5516    Z=             -0.0014  Tot=              1.5616
 Quadrupole moment (field-independent basis, Debye-Ang):
   XX=            -43.8066   YY=            -48.4739   ZZ=            -46.7070
   XY=              1.8786   XZ=             -0.0171   YZ=              0.0203
 Traceless Quadrupole moment (field-independent basis, Debye-Ang):
   XX=              2.5225   YY=             -2.1448   ZZ=             -0.3778
   XY=              1.8786   XZ=             -0.0171   YZ=              0.0203
 Octapole moment (field-independent basis, Debye-Ang**2):
  XXX=             24.3442  YYY=             -0.9783  ZZZ=              0.0210  XYY=              1.7688
  XXY=              4.7529  XXZ=              0.0230  XZZ=              1.3200  YZZ=             -0.4256
  YYZ=             -0.0216  XYZ=             -0.0178
 Hexadecapole moment (field-independent basis, Debye-Ang**3):
 XXXX=          -2013.7449 YYYY=           -169.8906 ZZZZ=            -96.5064 XXXY=             -3.0324
 XXXZ=             -0.0997 YYYX=             -1.4800 YYYZ=              0.0872 ZZZX=             -0.0253
 ZZZY=              0.0146 XXYY=           -368.7755 XXZZ=           -354.1349 YYZZ=            -39.4907
 XXYZ=              0.0317 YYXZ=              0.0073 ZZXY=              0.1795
 N-N= 3.069351866805D+02 E-N=-1.339872895315D+03  KE= 3.103055356085D+02
 There are a total of      173740 grid points.
 ElSum from          density=       58.0000386016
 ElSum from atomic densities=       58.0000839226

 Hirshfeld populations at iteration   1 (CX, CA, CB, DipXYZ):
               1          2          3          4          5          6
     1  C    0.000000   2.995315   2.995315  -0.039937  -0.051592   0.000125
     2  C    0.000000   3.050045   3.050045  -0.001715   0.015895  -0.000028
     3  H    0.000000   0.484401   0.484401   0.014544   0.079871  -0.112176
     4  H    0.000000   0.484402   0.484402   0.014662   0.080284   0.111862
     5  H    0.000000   0.478482   0.478482   0.120614   0.085111  -0.000239
     6  H    0.000000   0.479614   0.479614   0.005455  -0.083663   0.120629
     7  H    0.000000   0.479616   0.479616   0.005295  -0.084112  -0.120319
     8  C    0.000000   2.993813   2.993813   0.037898  -0.043094   0.000009
     9  C    0.000000   3.030427   3.030427  -0.009718   0.017873  -0.002010
    10  H    0.000000   0.483095   0.483095  -0.005633   0.078865  -0.114754
    11  H    0.000000   0.483028   0.483028  -0.005678   0.078944   0.114881
    12  C    0.000000   3.029218   3.029218  -0.001526  -0.020206   0.000282
    13  H    0.000000   0.479958   0.479958  -0.004565  -0.078167  -0.118483
    14  H    0.000000   0.480267   0.480267  -0.006081  -0.074904   0.120010
    15  C    0.000000   3.049773   3.049773   0.018919   0.011595  -0.000003
    16  H    0.000000   0.483531   0.483531  -0.005210   0.074571   0.114580
    17  H    0.000000   0.483721   0.483721  -0.004899   0.074335  -0.114385
    18  H    0.000000   0.482323   0.482323  -0.112966   0.088406  -0.000055
    19  H    0.000000   0.482262   0.482262  -0.000856  -0.079582  -0.117311
    20  H    0.000000   0.482285   0.482285  -0.001004  -0.079552   0.117234
    21  O    0.000000   4.104443   4.104443   0.002392   0.209855  -0.000391
       Tot   0.000003  29.000019  29.000019   0.019992   0.300730  -0.000542

 Dip from Atomic Chgs             -0.089390   0.309790  -0.000009
         Total Dipole             -0.069398   0.610520  -0.000551

 Hirshfeld charges, spin densities, dipoles, and CM5 charges using IRadAn=      4:
              Q-H        S-H        Dx         Dy         Dz        Q-CM5   
     1  C    0.009369   0.000000  -0.039937  -0.051592   0.000125  -0.073264
     2  C   -0.100090   0.000000  -0.001715   0.015895  -0.000028  -0.239523
     3  H    0.031197   0.000000   0.014544   0.079871  -0.112176   0.088016
     4  H    0.031196   0.000000   0.014662   0.080284   0.111862   0.088015
     5  H    0.043036   0.000000   0.120614   0.085111  -0.000239   0.091444
     6  H    0.040773   0.000000   0.005455  -0.083663   0.120629   0.090720
     7  H    0.040769   0.000000   0.005295  -0.084112  -0.120319   0.090716
     8  C    0.012375   0.000000   0.037898  -0.043094   0.000009  -0.070931
     9  C   -0.060854   0.000000  -0.009718   0.017873  -0.002010  -0.162632
    10  H    0.033810   0.000000  -0.005633   0.078865  -0.114754   0.091800
    11  H    0.033944   0.000000  -0.005678   0.078944   0.114881   0.091931
    12  C   -0.058436   0.000000  -0.001526  -0.020206   0.000282  -0.164924
    13  H    0.040084   0.000000  -0.004565  -0.078167  -0.118483   0.093867
    14  H    0.039465   0.000000  -0.006081  -0.074904   0.120010   0.093345
    15  C   -0.099546   0.000000   0.018919   0.011595  -0.000003  -0.242113
    16  H    0.032937   0.000000  -0.005210   0.074571   0.114580   0.084678
    17  H    0.032557   0.000000  -0.004899   0.074335  -0.114385   0.084298
    18  H    0.035354   0.000000  -0.112966   0.088406  -0.000055   0.083561
    19  H    0.035477   0.000000  -0.000856  -0.079582  -0.117311   0.084266
    20  H    0.035429   0.000000  -0.001004  -0.079552   0.117234   0.084219
    21  O   -0.208886   0.000000   0.002392   0.209855  -0.000391  -0.287530
       Tot  -0.000039   0.000000   0.019992   0.300730  -0.000542  -0.000039
 Hirshfeld charges with hydrogens summed into heavy atoms:
              Q-H       Q-CM5   
     1  C    0.071763   0.102767
     2  C    0.024487   0.033357
     8  C    0.080129   0.112801
     9  C    0.018695   0.024580
    12  C    0.007058   0.004052
    15  C    0.006715   0.009933
    21  O   -0.208886  -0.287530
 
 EQQ= 0.000000000000E+00 EQD= 0.000000000000E+00 EDD=-0.382601322554E-02
 EQQ+QD+DD=-0.382601322554E-02
 
          MBS Condensed to atoms (all electrons):
               1          2          3          4          5          6
     1  C    4.711441   0.374931   0.360638   0.360639  -0.018562  -0.022351
     2  C    0.374931   4.812720  -0.025278  -0.025278   0.369384   0.370994
     3  H    0.360638  -0.025278   0.635701  -0.027685  -0.001642   0.002271
     4  H    0.360639  -0.025278  -0.027685   0.635725  -0.001642  -0.003070
     5  H   -0.018562   0.369384  -0.001642  -0.001642   0.606556  -0.020042
     6  H   -0.022351   0.370994   0.002271  -0.003070  -0.020042   0.603313
     7  H   -0.022352   0.370992  -0.003069   0.002271  -0.020042  -0.021733
     8  C   -0.021158   0.000851  -0.002594  -0.002589  -0.000025   0.000002
     9  C    0.000828  -0.000007  -0.000003  -0.000003   0.000000   0.000000
    10  H   -0.002461  -0.000006   0.002346  -0.000312   0.000001   0.000002
    11  H   -0.002434  -0.000007  -0.000311   0.002334   0.000001   0.000000
    12  C   -0.000008   0.000000   0.000000   0.000000   0.000000   0.000000
    13  H    0.000005   0.000000   0.000000   0.000002   0.000000   0.000000
    14  H    0.000005   0.000000   0.000002   0.000001   0.000000   0.000000
    15  C    0.000000   0.000000   0.000000   0.000000   0.000000   0.000000
    16  H    0.000000   0.000000   0.000000   0.000000   0.000000   0.000000
    17  H    0.000000   0.000000   0.000000   0.000000   0.000000   0.000000
    18  H    0.000000   0.000000   0.000000   0.000000   0.000000   0.000000
    19  H    0.000000   0.000000   0.000000   0.000000   0.000000   0.000000
    20  H    0.000000   0.000000   0.000000   0.000000   0.000000   0.000000
    21  O    0.247618  -0.014971  -0.015437  -0.015438   0.000552  -0.000257
               7          8          9         10         11         12
     1  C   -0.022352  -0.021158   0.000828  -0.002461  -0.002434  -0.000008
     2  C    0.370992   0.000851  -0.000007  -0.000006  -0.000007   0.000000
     3  H   -0.003069  -0.002594  -0.000003   0.002346  -0.000311   0.000000
     4  H    0.002271  -0.002589  -0.000003  -0.000312   0.002334   0.000000
     5  H   -0.020042  -0.000025   0.000000   0.000001   0.000001   0.000000
     6  H   -0.021733   0.000002   0.000000   0.000002   0.000000   0.000000
     7  H    0.603324   0.000002   0.000000   0.000000   0.000002   0.000000
     8  C    0.000002   4.737764   0.374876   0.361378   0.361504  -0.022212
     9  C    0.000000   0.374876   4.786182  -0.024838  -0.024772   0.370667
    10  H    0.000000   0.361378  -0.024838   0.627484  -0.026917  -0.001959
    11  H    0.000002   0.361504  -0.024772  -0.026917   0.627241  -0.001888
    12  C    0.000000  -0.022212   0.370667  -0.001959  -0.001888   4.778147
    13  H    0.000000  -0.023302   0.367898  -0.002956   0.002261  -0.022580
    14  H    0.000000  -0.023333   0.367518   0.002278  -0.003107  -0.023271
    15  C    0.000000   0.000896  -0.026495  -0.000002  -0.000002   0.376817
    16  H    0.000000  -0.002689  -0.024121  -0.000055   0.001414   0.368968
    17  H    0.000000  -0.002727  -0.024257   0.001445  -0.000056   0.368676
    18  H    0.000000  -0.000025   0.001574   0.000001   0.000001  -0.021472
    19  H    0.000000   0.000010  -0.002708   0.000004   0.000000  -0.023005
    20  H    0.000000   0.000010  -0.002709   0.000000   0.000003  -0.023027
    21  O   -0.000257   0.239769  -0.014272  -0.014746  -0.014747   0.000226
              13         14         15         16         17         18
     1  C    0.000005   0.000005   0.000000   0.000000   0.000000   0.000000
     2  C    0.000000   0.000000   0.000000   0.000000   0.000000   0.000000
     3  H    0.000000   0.000002   0.000000   0.000000   0.000000   0.000000
     4  H    0.000002   0.000001   0.000000   0.000000   0.000000   0.000000
     5  H    0.000000   0.000000   0.000000   0.000000   0.000000   0.000000
     6  H    0.000000   0.000000   0.000000   0.000000   0.000000   0.000000
     7  H    0.000000   0.000000   0.000000   0.000000   0.000000   0.000000
     8  C   -0.023302  -0.023333   0.000896  -0.002689  -0.002727  -0.000025
     9  C    0.367898   0.367518  -0.026495  -0.024121  -0.024257   0.001574
    10  H   -0.002956   0.002278  -0.000002  -0.000055   0.001445   0.000001
    11  H    0.002261  -0.003107  -0.000002   0.001414  -0.000056   0.000001
    12  C   -0.022580  -0.023271   0.376817   0.368968   0.368676  -0.021472
    13  H    0.621265  -0.022192  -0.002718   0.002295  -0.002624   0.000018
    14  H   -0.022192   0.623407  -0.002766  -0.002810   0.002346   0.000017
    15  C   -0.002718  -0.002766   4.816601  -0.023266  -0.023269   0.372625
    16  H    0.002295  -0.002810  -0.023266   0.639114  -0.023392  -0.002432
    17  H   -0.002624   0.002346  -0.023269  -0.023392   0.639709  -0.002437
    18  H    0.000018   0.000017   0.372625  -0.002432  -0.002437   0.616117
    19  H    0.001461  -0.000059   0.372084   0.002273  -0.002645  -0.021132
    20  H   -0.000058   0.001492   0.372037  -0.002649   0.002277  -0.021137
    21  O   -0.000257  -0.000262  -0.000001   0.000001   0.000001   0.000000
              19         20         21
     1  C    0.000000   0.000000   0.247618
     2  C    0.000000   0.000000  -0.014971
     3  H    0.000000   0.000000  -0.015437
     4  H    0.000000   0.000000  -0.015438
     5  H    0.000000   0.000000   0.000552
     6  H    0.000000   0.000000  -0.000257
     7  H    0.000000   0.000000  -0.000257
     8  C    0.000010   0.000010   0.239769
     9  C   -0.002708  -0.002709  -0.014272
    10  H    0.000004   0.000000  -0.014746
    11  H    0.000000   0.000003  -0.014747
    12  C   -0.023005  -0.023027   0.000226
    13  H    0.001461  -0.000058  -0.000257
    14  H   -0.000059   0.001492  -0.000262
    15  C    0.372084   0.372037  -0.000001
    16  H    0.002273  -0.002649   0.000001
    17  H   -0.002645   0.002277   0.000001
    18  H   -0.021132  -0.021137   0.000000
    19  H    0.618150  -0.021878   0.000000
    20  H   -0.021878   0.618298   0.000000
    21  O    0.000000   0.000000   8.048672
 MBS Mulliken charges:
               1
     1  C    0.033219
     2  C   -0.234324
     3  H    0.075062
     4  H    0.075046
     5  H    0.085461
     6  H    0.090872
     7  H    0.090863
     8  C    0.023593
     9  C   -0.125359
    10  H    0.079315
    11  H    0.079481
    12  C   -0.124080
    13  H    0.081483
    14  H    0.080733
    15  C   -0.232539
    16  H    0.067348
    17  H    0.066954
    18  H    0.078282
    19  H    0.077445
    20  H    0.077340
    21  O   -0.446196
 Sum of MBS Mulliken charges =   0.00000
 MBS Mulliken charges with hydrogens summed into heavy atoms:
               1
     1  C    0.183328
     2  C    0.032872
     8  C    0.182390
     9  C    0.036857
    12  C    0.010221
    15  C    0.000528
    21  O   -0.446196
 Breneman (CHELPG) radii used.
 Generate Potential Derived Charges using the Breneman model, NDens= 1.
 Grid spacing= 0.300 Box extension= 2.800
 NStep X,Y,Z=   51     28     26   Total possible points=       37128
 Number of Points to Fit=   13962

 **********************************************************************

            Electrostatic Properties Using The SCF Density

 **********************************************************************

       Atomic Center    1 is at   2.513727  0.458635 -0.001100
       Atomic Center    2 is at   3.749781 -0.403001 -0.000315
       Atomic Center    3 is at   2.518282  1.123994 -0.904660
       Atomic Center    4 is at   2.519446  1.127283  0.900030
       Atomic Center    5 is at   4.667342  0.233417 -0.002112
       Atomic Center    6 is at   3.774953 -1.055680  0.905744
       Atomic Center    7 is at   3.773748 -1.059059 -0.903962
       Atomic Center    8 is at  -0.012128  0.503176  0.000543
       Atomic Center    9 is at  -1.250027 -0.355780  0.000029
       Atomic Center   10 is at   0.014504  1.157362 -0.904364
       Atomic Center   11 is at   0.013614  1.157424  0.905454
       Atomic Center   12 is at  -2.510730  0.483016 -0.000522
       Atomic Center   13 is at  -1.245906 -1.022824 -0.902326
       Atomic Center   14 is at  -1.254944 -1.004572  0.915596
       Atomic Center   15 is at  -3.748625 -0.375973 -0.001102
       Atomic Center   16 is at  -2.514858  1.150038  0.901814
       Atomic Center   17 is at  -2.514020  1.150023 -0.902879
       Atomic Center   18 is at  -4.664822  0.262410 -0.001486
       Atomic Center   19 is at  -3.774193 -1.030254 -0.905993
       Atomic Center   20 is at  -3.774996 -1.030322  0.903716
       Atomic Center   21 is at   1.251232 -0.377459  0.001279
   13962 points will be used for fitting atomic charges
 Fitting point charges to electrostatic potential
 Charges from ESP fit, RMS=   0.00243 RRMS=   0.24338:
 ESP charges:
               1
     1  C    0.450491
     2  C   -0.255290
     3  H   -0.047309
     4  H   -0.047289
     5  H    0.048121
     6  H    0.072236
     7  H    0.072326
     8  C    0.145830
     9  C    0.070236
    10  H    0.007864
    11  H    0.007937
    12  C    0.171247
    13  H    0.004963
    14  H    0.004237
    15  C   -0.189001
    16  H   -0.042994
    17  H   -0.044647
    18  H    0.044325
    19  H    0.034212
    20  H    0.034294
    21  O   -0.541790
 Sum of ESP charges =   0.00000
 ESP charges with hydrogens summed into heavy atoms:
               1
     1  C    0.355893
     2  C   -0.062607
     8  C    0.161631
     9  C    0.079436
    12  C    0.083607
    15  C   -0.076169
    21  O   -0.541790
 Charge=   0.00000 Dipole=    -0.1831     1.5239     0.0011 Tot=     1.5349
 -----------------------------------------------------------------

              Electrostatic Properties (Atomic Units)

 -----------------------------------------------------------------
    Center     Electric         -------- Electric Field --------
               Potential          X             Y             Z
 -----------------------------------------------------------------
    1 Atom    -14.721908
    2 Atom    -14.775741
    3 Atom     -1.122416
    4 Atom     -1.122419
    5 Atom     -1.111683
    6 Atom     -1.123090
    7 Atom     -1.123088
    8 Atom    -14.723731
    9 Atom    -14.774209
   10 Atom     -1.118561
   11 Atom     -1.118489
   12 Atom    -14.769897
   13 Atom     -1.125989
   14 Atom     -1.126605
   15 Atom    -14.778002
   16 Atom     -1.125085
   17 Atom     -1.125411
   18 Atom     -1.123734
   19 Atom     -1.123336
   20 Atom     -1.123324
   21 Atom    -22.378548
 -----------------------------------------------------------------
 ******************************Gaussian NBO Version 3.1******************************
             N A T U R A L   A T O M I C   O R B I T A L   A N D
          N A T U R A L   B O N D   O R B I T A L   A N A L Y S I S
 ******************************Gaussian NBO Version 3.1******************************
       /RESON  / : Allow strongly delocalized NBO set

 Analyzing the SCF density

 Job title: Title Card Required                                             

 Storage needed:    171514 in NPA ( 104855185 available)


 NATURAL POPULATIONS:  Natural atomic orbital occupancies 
                                                          
   NAO  Atom  No  lang   Type(AO)    Occupancy      Energy
 ----------------------------------------------------------
     1    C    1  S      Cor( 1S)     1.99921     -10.10436
     2    C    1  S      Val( 2S)     1.03938      -0.26870
     3    C    1  S      Ryd( 4S)     0.00475       0.90809
     4    C    1  S      Ryd( 3S)     0.00032       0.74771
     5    C    1  S      Ryd( 5S)     0.00000      23.22703
     6    C    1  px     Val( 2p)     0.81524      -0.07143
     7    C    1  px     Ryd( 4p)     0.00109       0.78222
     8    C    1  px     Ryd( 3p)     0.00066       0.36048
     9    C    1  px     Ryd( 5p)     0.00022       2.82576
    10    C    1  py     Val( 2p)     0.99630      -0.08662
    11    C    1  py     Ryd( 4p)     0.00183       0.62271
    12    C    1  py     Ryd( 3p)     0.00032       0.44570
    13    C    1  py     Ryd( 5p)     0.00019       2.79879
    14    C    1  pz     Val( 2p)     1.16547      -0.09168
    15    C    1  pz     Ryd( 4p)     0.00129       0.65854
    16    C    1  pz     Ryd( 3p)     0.00060       0.47561
    17    C    1  pz     Ryd( 5p)     0.00007       2.79605
    18    C    1  dxy    Ryd( 3d)     0.00168       2.16794
    19    C    1  dxz    Ryd( 3d)     0.00099       1.72231
    20    C    1  dyz    Ryd( 3d)     0.00141       2.20875
    21    C    1  dx2y2  Ryd( 3d)     0.00138       1.91931
    22    C    1  dz2    Ryd( 3d)     0.00101       2.04973

    23    C    2  S      Cor( 1S)     1.99938     -10.03369
    24    C    2  S      Val( 2S)     1.10804      -0.27123
    25    C    2  S      Ryd( 4S)     0.00138       0.77305
    26    C    2  S      Ryd( 3S)     0.00034       0.60729
    27    C    2  S      Ryd( 5S)     0.00000      23.39413
    28    C    2  px     Val( 2p)     1.10926      -0.09336
    29    C    2  px     Ryd( 4p)     0.00194       0.54195
    30    C    2  px     Ryd( 3p)     0.00017       0.25637
    31    C    2  px     Ryd( 5p)     0.00009       3.08975
    32    C    2  py     Val( 2p)     1.16395      -0.09327
    33    C    2  py     Ryd( 4p)     0.00150       0.50979
    34    C    2  py     Ryd( 3p)     0.00012       0.23445
    35    C    2  py     Ryd( 5p)     0.00004       3.08672
    36    C    2  pz     Val( 2p)     1.21249      -0.09574
    37    C    2  pz     Ryd( 4p)     0.00103       0.48273
    38    C    2  pz     Ryd( 3p)     0.00005       0.23791
    39    C    2  pz     Ryd( 5p)     0.00002       3.08951
    40    C    2  dxy    Ryd( 3d)     0.00091       2.27343
    41    C    2  dxz    Ryd( 3d)     0.00014       1.78424
    42    C    2  dyz    Ryd( 3d)     0.00105       2.20511
    43    C    2  dx2y2  Ryd( 3d)     0.00020       1.89933
    44    C    2  dz2    Ryd( 3d)     0.00072       2.09700

    45    H    3  S      Val( 1S)     0.83612       0.00182
    46    H    3  S      Ryd( 2S)     0.00174       0.60400
    47    H    3  S      Ryd( 3S)     0.00017       2.21277
    48    H    3  px     Ryd( 2p)     0.00014       1.74539
    49    H    3  py     Ryd( 2p)     0.00025       2.06148
    50    H    3  pz     Ryd( 2p)     0.00035       2.35112

    51    H    4  S      Val( 1S)     0.83613       0.00181
    52    H    4  S      Ryd( 2S)     0.00174       0.60389
    53    H    4  S      Ryd( 3S)     0.00017       2.21279
    54    H    4  px     Ryd( 2p)     0.00014       1.74546
    55    H    4  py     Ryd( 2p)     0.00025       2.06440
    56    H    4  pz     Ryd( 2p)     0.00035       2.34795

    57    H    5  S      Val( 1S)     0.79041       0.01611
    58    H    5  S      Ryd( 2S)     0.00061       0.60271
    59    H    5  S      Ryd( 3S)     0.00010       2.15152
    60    H    5  px     Ryd( 2p)     0.00030       2.32823
    61    H    5  py     Ryd( 2p)     0.00018       1.99173
    62    H    5  pz     Ryd( 2p)     0.00011       1.72504

    63    H    6  S      Val( 1S)     0.79047       0.02816
    64    H    6  S      Ryd( 2S)     0.00122       0.80694
    65    H    6  S      Ryd( 3S)     0.00013       1.95886
    66    H    6  px     Ryd( 2p)     0.00013       1.73385
    67    H    6  py     Ryd( 2p)     0.00017       2.03195
    68    H    6  pz     Ryd( 2p)     0.00025       2.33997

    69    H    7  S      Val( 1S)     0.79048       0.02815
    70    H    7  S      Ryd( 2S)     0.00122       0.80678
    71    H    7  S      Ryd( 3S)     0.00013       1.95899
    72    H    7  px     Ryd( 2p)     0.00013       1.73370
    73    H    7  py     Ryd( 2p)     0.00017       2.03515
    74    H    7  pz     Ryd( 2p)     0.00024       2.33688

    75    C    8  S      Cor( 1S)     1.99912     -10.10116
    76    C    8  S      Val( 2S)     1.04069      -0.26389
    77    C    8  S      Ryd( 4S)     0.00358       0.97354
    78    C    8  S      Ryd( 3S)     0.00056       0.64909
    79    C    8  S      Ryd( 5S)     0.00000      23.34920
    80    C    8  px     Val( 2p)     0.80748      -0.07051
    81    C    8  px     Ryd( 4p)     0.00184       0.83494
    82    C    8  px     Ryd( 3p)     0.00079       0.46824
    83    C    8  px     Ryd( 5p)     0.00019       2.97588
    84    C    8  py     Val( 2p)     0.98604      -0.08579
    85    C    8  py     Ryd( 4p)     0.00212       0.62258
    86    C    8  py     Ryd( 3p)     0.00032       0.31419
    87    C    8  py     Ryd( 5p)     0.00022       2.95791
    88    C    8  pz     Val( 2p)     1.16967      -0.09199
    89    C    8  pz     Ryd( 4p)     0.00123       0.67027
    90    C    8  pz     Ryd( 3p)     0.00060       0.39133
    91    C    8  pz     Ryd( 5p)     0.00008       2.95379
    92    C    8  dxy    Ryd( 3d)     0.00163       2.14947
    93    C    8  dxz    Ryd( 3d)     0.00087       1.75224
    94    C    8  dyz    Ryd( 3d)     0.00145       2.20834
    95    C    8  dx2y2  Ryd( 3d)     0.00132       1.90642
    96    C    8  dz2    Ryd( 3d)     0.00097       2.05655

    97    C    9  S      Cor( 1S)     1.99925     -10.03031
    98    C    9  S      Val( 2S)     1.03202      -0.23492
    99    C    9  S      Ryd( 3S)     0.00310       0.84983
   100    C    9  S      Ryd( 4S)     0.00059       0.86269
   101    C    9  S      Ryd( 5S)     0.00000      23.27460
   102    C    9  px     Val( 2p)     1.03391      -0.07846
   103    C    9  px     Ryd( 4p)     0.00385       0.66650
   104    C    9  px     Ryd( 3p)     0.00041       0.60267
   105    C    9  px     Ryd( 5p)     0.00015       3.08683
   106    C    9  py     Val( 2p)     1.12956      -0.09187
   107    C    9  py     Ryd( 4p)     0.00187       0.52992
   108    C    9  py     Ryd( 3p)     0.00020       0.38142
   109    C    9  py     Ryd( 5p)     0.00009       3.04340
   110    C    9  pz     Val( 2p)     1.20437      -0.08837
   111    C    9  pz     Ryd( 4p)     0.00250       0.62770
   112    C    9  pz     Ryd( 3p)     0.00020       0.29602
   113    C    9  pz     Ryd( 5p)     0.00003       3.11549
   114    C    9  dxy    Ryd( 3d)     0.00083       2.32125
   115    C    9  dxz    Ryd( 3d)     0.00022       1.81705
   116    C    9  dyz    Ryd( 3d)     0.00116       2.22336
   117    C    9  dx2y2  Ryd( 3d)     0.00034       1.96154
   118    C    9  dz2    Ryd( 3d)     0.00073       2.12666

   119    H   10  S      Val( 1S)     0.83120       0.00410
   120    H   10  S      Ryd( 2S)     0.00194       0.67000
   121    H   10  S      Ryd( 3S)     0.00019       2.15999
   122    H   10  px     Ryd( 2p)     0.00016       1.79438
   123    H   10  py     Ryd( 2p)     0.00024       2.07800
   124    H   10  pz     Ryd( 2p)     0.00035       2.37620

   125    H   11  S      Val( 1S)     0.83102       0.00411
   126    H   11  S      Ryd( 2S)     0.00193       0.66822
   127    H   11  S      Ryd( 3S)     0.00019       2.16128
   128    H   11  px     Ryd( 2p)     0.00016       1.79418
   129    H   11  py     Ryd( 2p)     0.00024       2.07774
   130    H   11  pz     Ryd( 2p)     0.00035       2.37626

   131    C   12  S      Cor( 1S)     1.99930     -10.03511
   132    C   12  S      Val( 2S)     1.02449      -0.23498
   133    C   12  S      Ryd( 3S)     0.00290       0.73638
   134    C   12  S      Ryd( 4S)     0.00060       0.93966
   135    C   12  S      Ryd( 5S)     0.00000      23.23920
   136    C   12  px     Val( 2p)     1.03721      -0.08007
   137    C   12  px     Ryd( 4p)     0.00218       0.61063
   138    C   12  px     Ryd( 3p)     0.00062       0.47519
   139    C   12  px     Ryd( 5p)     0.00012       2.99251
   140    C   12  py     Val( 2p)     1.12576      -0.09185
   141    C   12  py     Ryd( 4p)     0.00122       0.51962
   142    C   12  py     Ryd( 3p)     0.00020       0.38136
   143    C   12  py     Ryd( 5p)     0.00011       3.01497
   144    C   12  pz     Val( 2p)     1.18990      -0.08764
   145    C   12  pz     Ryd( 4p)     0.00206       0.61680
   146    C   12  pz     Ryd( 3p)     0.00021       0.29632
   147    C   12  pz     Ryd( 5p)     0.00003       3.05860
   148    C   12  dxy    Ryd( 3d)     0.00075       2.29970
   149    C   12  dxz    Ryd( 3d)     0.00021       1.81184
   150    C   12  dyz    Ryd( 3d)     0.00117       2.22355
   151    C   12  dx2y2  Ryd( 3d)     0.00051       1.97094
   152    C   12  dz2    Ryd( 3d)     0.00071       2.11179

   153    H   13  S      Val( 1S)     0.79198       0.02745
   154    H   13  S      Ryd( 2S)     0.00161       0.90132
   155    H   13  S      Ryd( 3S)     0.00016       1.98798
   156    H   13  px     Ryd( 2p)     0.00018       1.82220
   157    H   13  py     Ryd( 2p)     0.00020       2.08800
   158    H   13  pz     Ryd( 2p)     0.00024       2.36672

   159    H   14  S      Val( 1S)     0.79304       0.02691
   160    H   14  S      Ryd( 2S)     0.00164       0.90805
   161    H   14  S      Ryd( 3S)     0.00016       1.98521
   162    H   14  px     Ryd( 2p)     0.00018       1.82257
   163    H   14  py     Ryd( 2p)     0.00019       2.07550
   164    H   14  pz     Ryd( 2p)     0.00025       2.38352

   165    C   15  S      Cor( 1S)     1.99938     -10.02949
   166    C   15  S      Val( 2S)     1.09343      -0.25839
   167    C   15  S      Ryd( 3S)     0.00102       0.63232
   168    C   15  S      Ryd( 4S)     0.00040       0.77233
   169    C   15  S      Ryd( 5S)     0.00000      23.39380
   170    C   15  px     Val( 2p)     1.11536      -0.08765
   171    C   15  px     Ryd( 4p)     0.00231       0.54900
   172    C   15  px     Ryd( 3p)     0.00041       0.23291
   173    C   15  px     Ryd( 5p)     0.00006       3.09193
   174    C   15  py     Val( 2p)     1.15705      -0.08811
   175    C   15  py     Ryd( 4p)     0.00187       0.50962
   176    C   15  py     Ryd( 3p)     0.00013       0.25069
   177    C   15  py     Ryd( 5p)     0.00005       3.08468
   178    C   15  pz     Val( 2p)     1.19997      -0.09215
   179    C   15  pz     Ryd( 4p)     0.00079       0.48802
   180    C   15  pz     Ryd( 3p)     0.00010       0.25575
   181    C   15  pz     Ryd( 5p)     0.00001       3.07997
   182    C   15  dxy    Ryd( 3d)     0.00084       2.26127
   183    C   15  dxz    Ryd( 3d)     0.00011       1.80484
   184    C   15  dyz    Ryd( 3d)     0.00107       2.20841
   185    C   15  dx2y2  Ryd( 3d)     0.00040       1.91477
   186    C   15  dz2    Ryd( 3d)     0.00066       2.09606

   187    H   16  S      Val( 1S)     0.80626       0.01807
   188    H   16  S      Ryd( 2S)     0.00164       0.72227
   189    H   16  S      Ryd( 3S)     0.00012       2.15594
   190    H   16  px     Ryd( 2p)     0.00016       1.76899
   191    H   16  py     Ryd( 2p)     0.00020       2.07513
   192    H   16  pz     Ryd( 2p)     0.00026       2.34570

   193    H   17  S      Val( 1S)     0.80661       0.01819
   194    H   17  S      Ryd( 2S)     0.00166       0.72274
   195    H   17  S      Ryd( 3S)     0.00011       2.15606
   196    H   17  px     Ryd( 2p)     0.00016       1.76876
   197    H   17  py     Ryd( 2p)     0.00020       2.07514
   198    H   17  pz     Ryd( 2p)     0.00026       2.34597

   199    H   18  S      Val( 1S)     0.79646       0.02584
   200    H   18  S      Ryd( 2S)     0.00063       0.60501
   201    H   18  S      Ryd( 3S)     0.00009       2.15756
   202    H   18  px     Ryd( 2p)     0.00026       2.33944
   203    H   18  py     Ryd( 2p)     0.00020       1.99671
   204    H   18  pz     Ryd( 2p)     0.00010       1.76476

   205    H   19  S      Val( 1S)     0.80126       0.02331
   206    H   19  S      Ryd( 2S)     0.00116       0.68342
   207    H   19  S      Ryd( 3S)     0.00010       2.11138
   208    H   19  px     Ryd( 2p)     0.00013       1.72678
   209    H   19  py     Ryd( 2p)     0.00018       2.03343
   210    H   19  pz     Ryd( 2p)     0.00026       2.34209

   211    H   20  S      Val( 1S)     0.80136       0.02325
   212    H   20  S      Ryd( 2S)     0.00117       0.68490
   213    H   20  S      Ryd( 3S)     0.00010       2.11008
   214    H   20  px     Ryd( 2p)     0.00013       1.72662
   215    H   20  py     Ryd( 2p)     0.00018       2.03326
   216    H   20  pz     Ryd( 2p)     0.00026       2.34199

   217    O   21  S      Cor( 1S)     1.99984     -18.94103
   218    O   21  S      Val( 2S)     1.70303      -0.86966
   219    O   21  S      Ryd( 3S)     0.00729       0.67516
   220    O   21  S      Ryd( 4S)     0.00017       1.88240
   221    O   21  S      Ryd( 5S)     0.00000      49.49585
   222    O   21  px     Val( 2p)     1.32621      -0.25088
   223    O   21  px     Ryd( 3p)     0.00299       1.02666
   224    O   21  px     Ryd( 4p)     0.00077       1.04800
   225    O   21  px     Ryd( 5p)     0.00001       5.06285
   226    O   21  py     Val( 2p)     1.63968      -0.27667
   227    O   21  py     Ryd( 3p)     0.00133       0.69465
   228    O   21  py     Ryd( 4p)     0.00045       0.86263
   229    O   21  py     Ryd( 5p)     0.00006       4.99887
   230    O   21  pz     Val( 2p)     1.94003      -0.27318
   231    O   21  pz     Ryd( 3p)     0.00327       0.60884
   232    O   21  pz     Ryd( 4p)     0.00063       0.82673
   233    O   21  pz     Ryd( 5p)     0.00000       4.95136
   234    O   21  dxy    Ryd( 3d)     0.00113       3.42772
   235    O   21  dxz    Ryd( 3d)     0.00007       2.97112
   236    O   21  dyz    Ryd( 3d)     0.00052       2.96338
   237    O   21  dx2y2  Ryd( 3d)     0.00049       3.04378
   238    O   21  dz2    Ryd( 3d)     0.00049       3.16154

 WARNING:  Population inversion found on atom  C    1
           Population inversion found on atom  C    2
           Population inversion found on atom  C    8
           Population inversion found on atom  C    9
           Population inversion found on atom  C   12
           Population inversion found on atom  C   15


 Summary of Natural Population Analysis:                  
                                                          
                                       Natural Population 
                Natural  -----------------------------------------------
    Atom  No    Charge         Core      Valence    Rydberg      Total
 -----------------------------------------------------------------------
      C    1   -0.03341      1.99921     4.01639    0.01781     6.03341
      C    2   -0.60280      1.99938     4.59374    0.00969     6.60280
      H    3    0.16122      0.00000     0.83612    0.00266     0.83878
      H    4    0.16121      0.00000     0.83613    0.00266     0.83879
      H    5    0.20830      0.00000     0.79041    0.00129     0.79170
      H    6    0.20763      0.00000     0.79047    0.00190     0.79237
      H    7    0.20762      0.00000     0.79048    0.00190     0.79238
      C    8   -0.02078      1.99912     4.00388    0.01777     6.02078
      C    9   -0.41540      1.99925     4.39987    0.01628     6.41540
      H   10    0.16592      0.00000     0.83120    0.00288     0.83408
      H   11    0.16611      0.00000     0.83102    0.00287     0.83389
      C   12   -0.39024      1.99930     4.37735    0.01359     6.39024
      H   13    0.20562      0.00000     0.79198    0.00240     0.79438
      H   14    0.20453      0.00000     0.79304    0.00242     0.79547
      C   15   -0.57540      1.99938     4.56580    0.01022     6.57540
      H   16    0.19136      0.00000     0.80626    0.00239     0.80864
      H   17    0.19099      0.00000     0.80661    0.00240     0.80901
      H   18    0.20226      0.00000     0.79646    0.00128     0.79774
      H   19    0.19691      0.00000     0.80126    0.00183     0.80309
      H   20    0.19680      0.00000     0.80136    0.00184     0.80320
      O   21   -0.62846      1.99984     6.60895    0.01967     8.62846
 =======================================================================
   * Total *    0.00000     13.99548    43.86878    0.13575    58.00000

                                 Natural Population      
 --------------------------------------------------------
   Core                      13.99548 ( 99.9677% of  14)
   Valence                   43.86878 ( 99.7018% of  44)
   Natural Minimal Basis     57.86425 ( 99.7660% of  58)
   Natural Rydberg Basis      0.13575 (  0.2340% of  58)
 --------------------------------------------------------

    Atom  No          Natural Electron Configuration
 ----------------------------------------------------------------------------
      C    1      [core]2S( 1.04)2p( 2.98)3d( 0.01)
      C    2      [core]2S( 1.11)2p( 3.49)
      H    3            1S( 0.84)
      H    4            1S( 0.84)
      H    5            1S( 0.79)
      H    6            1S( 0.79)
      H    7            1S( 0.79)
      C    8      [core]2S( 1.04)2p( 2.96)3d( 0.01)4p( 0.01)
      C    9      [core]2S( 1.03)2p( 3.37)4p( 0.01)
      H   10            1S( 0.83)
      H   11            1S( 0.83)
      C   12      [core]2S( 1.02)2p( 3.35)4p( 0.01)
      H   13            1S( 0.79)
      H   14            1S( 0.79)
      C   15      [core]2S( 1.09)2p( 3.47)
      H   16            1S( 0.81)
      H   17            1S( 0.81)
      H   18            1S( 0.80)
      H   19            1S( 0.80)
      H   20            1S( 0.80)
      O   21      [core]2S( 1.70)2p( 4.91)3S( 0.01)3p( 0.01)


 NBO analysis skipped by request.
 Calling FoFJK, ICntrl=      2127 FMM=F ISym2X=0 I1Cent= 0 IOpClX= 0 NMat=1 NMatS=1 NMatT=0.
 ***** Axes restored to original set *****
 -------------------------------------------------------------------
 Center     Atomic                   Forces (Hartrees/Bohr)
 Number     Number              X              Y              Z
 -------------------------------------------------------------------
      1        6          -0.030505931    0.011094888   -0.000038728
      2        6           0.015810773    0.011317810   -0.000026256
      3        1           0.002112798    0.009706128   -0.010793432
      4        1           0.002119926    0.009744048    0.010756154
      5        1          -0.006002972    0.012866487   -0.000026006
      6        1          -0.003891261   -0.006990251    0.012052099
      7        1          -0.003893445   -0.007040700   -0.012021276
      8        6           0.037868665   -0.019300280    0.000164794
      9        6           0.019360428    0.013221142   -0.001580986
     10        1           0.005883548    0.005038275   -0.009557902
     11        1           0.005833476    0.005067950    0.009646225
     12        6          -0.011343387   -0.019991494    0.000885877
     13        1          -0.003287033   -0.006907041   -0.014056481
     14        1          -0.001883477   -0.006455228    0.014461185
     15        6          -0.011898469    0.018702597    0.000010319
     16        1           0.003860735    0.005856737    0.012775888
     17        1           0.003611080    0.005883839   -0.012713041
     18        1           0.013836624    0.003394779   -0.000007102
     19        1          -0.005377863   -0.005002525   -0.011707755
     20        1          -0.005369505   -0.004988535    0.011688075
     21        8          -0.026844711   -0.035218626    0.000088348
 -------------------------------------------------------------------
 Cartesian Forces:  Max     0.037868665 RMS     0.012371837

 GradGradGradGradGradGradGradGradGradGradGradGradGradGradGradGradGradGrad
 Berny optimization.
 FormGI is forming the generalized inverse of G from B-inverse, IUseBI=4.
 Internal  Forces:  Max     0.051092781 RMS     0.009281036
 Search for a local minimum.
 Step number   1 out of a maximum of  109
 All quantities printed in internal units (Hartrees-Bohrs-Radians)
 Mixed Optimization -- RFO/linear search
 Second derivative matrix not updated -- first step.
 ITU=  0
     Eigenvalues ---    0.00230   0.00230   0.00577   0.00677   0.00677
     Eigenvalues ---    0.00677   0.03850   0.03895   0.04893   0.05056
     Eigenvalues ---    0.05058   0.05094   0.05796   0.05796   0.05820
     Eigenvalues ---    0.05820   0.05840   0.05974   0.08239   0.08282
     Eigenvalues ---    0.11198   0.11220   0.12101   0.12133   0.13690
     Eigenvalues ---    0.13792   0.16000   0.16000   0.16000   0.16000
     Eigenvalues ---    0.16000   0.16000   0.21903   0.21951   0.22006
     Eigenvalues ---    0.22015   0.25000   0.28519   0.30927   0.30927
     Eigenvalues ---    0.31347   0.31347   0.31350   0.31350   0.31350
     Eigenvalues ---    0.31350   0.31681   0.31681   0.31683   0.31876
     Eigenvalues ---    0.31876   0.31876   0.31876   0.31876   0.31878
     Eigenvalues ---    0.31904   0.31904
 RFO step:  Lambda=-2.71481590D-02 EMin= 2.30000000D-03
 Linear search not attempted -- first point.
 Iteration  1 RMS(Cart)=  0.08000076 RMS(Int)=  0.00065827
 Iteration  2 RMS(Cart)=  0.00084680 RMS(Int)=  0.00024108
 Iteration  3 RMS(Cart)=  0.00000065 RMS(Int)=  0.00024108
 Variable       Old X    -DE/DX   Delta X   Delta X   Delta X     New X
                                 (Linear)    (Quad)   (Total)
    R1        2.84731   0.00202   0.00000   0.00589   0.00589   2.85320
    R2        2.12049  -0.01414   0.00000  -0.04152  -0.04152   2.07897
    R3        2.12050  -0.01414   0.00000  -0.04152  -0.04152   2.07898
    R4        2.86152  -0.04677   0.00000  -0.13902  -0.13902   2.72249
    R5        2.11020  -0.01415   0.00000  -0.04088  -0.04088   2.06932
    R6        2.11072  -0.01441   0.00000  -0.04165  -0.04165   2.06906
    R7        2.11072  -0.01441   0.00000  -0.04165  -0.04165   2.06906
    R8        2.84728   0.00296   0.00000   0.00859   0.00859   2.85588
    R9        2.11069  -0.01209   0.00000  -0.03495  -0.03495   2.07574
   R10        2.11072  -0.01216   0.00000  -0.03515  -0.03515   2.07557
   R11        2.91018  -0.05109   0.00000  -0.16358  -0.16358   2.74660
   R12        2.86152   0.01276   0.00000   0.03794   0.03794   2.89945
   R13        2.12055  -0.01579   0.00000  -0.04634  -0.04634   2.07420
   R14        2.12055  -0.01549   0.00000  -0.04548  -0.04548   2.07507
   R15        2.84731   0.01441   0.00000   0.04191   0.04191   2.88922
   R16        2.12049  -0.01444   0.00000  -0.04239  -0.04239   2.07810
   R17        2.12050  -0.01432   0.00000  -0.04203  -0.04203   2.07847
   R18        2.11020  -0.01384   0.00000  -0.03997  -0.03997   2.07023
   R19        2.11072  -0.01365   0.00000  -0.03947  -0.03947   2.07124
   R20        2.11072  -0.01363   0.00000  -0.03940  -0.03940   2.07132
    A1        1.91365   0.00595   0.00000   0.03267   0.03186   1.94551
    A2        1.91363   0.00594   0.00000   0.03264   0.03183   1.94546
    A3        1.94788  -0.01281   0.00000  -0.05699  -0.05680   1.89109
    A4        1.86847  -0.00147   0.00000   0.01032   0.00916   1.87763
    A5        1.90927   0.00143   0.00000  -0.00800  -0.00757   1.90170
    A6        1.90922   0.00144   0.00000  -0.00792  -0.00749   1.90173
    A7        1.92641  -0.00246   0.00000  -0.01482  -0.01478   1.91163
    A8        1.93165   0.00195   0.00000   0.01123   0.01119   1.94284
    A9        1.93165   0.00194   0.00000   0.01122   0.01118   1.94283
   A10        1.89212  -0.00004   0.00000  -0.00182  -0.00177   1.89034
   A11        1.89212  -0.00004   0.00000  -0.00182  -0.00178   1.89035
   A12        1.88870  -0.00140   0.00000  -0.00429  -0.00441   1.88429
   A13        1.93180   0.00343   0.00000   0.01930   0.01901   1.95081
   A14        1.93172   0.00339   0.00000   0.01907   0.01878   1.95050
   A15        1.92623  -0.00764   0.00000  -0.03415  -0.03407   1.89217
   A16        1.88889  -0.00109   0.00000   0.00454   0.00412   1.89301
   A17        1.89205   0.00096   0.00000  -0.00456  -0.00440   1.88765
   A18        1.89195   0.00099   0.00000  -0.00438  -0.00422   1.88773
   A19        1.94790   0.00233   0.00000   0.01379   0.01373   1.96163
   A20        1.91361  -0.00117   0.00000  -0.00864  -0.00874   1.90487
   A21        1.91020  -0.00145   0.00000  -0.00747  -0.00771   1.90249
   A22        1.90927   0.00014   0.00000   0.00508   0.00514   1.91441
   A23        1.89327   0.00121   0.00000   0.01543   0.01543   1.90870
   A24        1.88854  -0.00115   0.00000  -0.01899  -0.01912   1.86943
   A25        1.94788   0.00538   0.00000   0.02597   0.02589   1.97377
   A26        1.90927  -0.00127   0.00000  -0.00249  -0.00253   1.90674
   A27        1.90922  -0.00104   0.00000  -0.00047  -0.00052   1.90870
   A28        1.91365  -0.00146   0.00000  -0.00473  -0.00482   1.90883
   A29        1.91363  -0.00159   0.00000  -0.00519  -0.00530   1.90833
   A30        1.86847  -0.00026   0.00000  -0.01480  -0.01486   1.85361
   A31        1.92641   0.00411   0.00000   0.02271   0.02257   1.94898
   A32        1.93165   0.00184   0.00000   0.00944   0.00937   1.94101
   A33        1.93165   0.00184   0.00000   0.00945   0.00937   1.94102
   A34        1.89212  -0.00294   0.00000  -0.01495  -0.01508   1.87704
   A35        1.89212  -0.00294   0.00000  -0.01500  -0.01512   1.87700
   A36        1.88870  -0.00221   0.00000  -0.01332  -0.01334   1.87536
   A37        1.94790  -0.00736   0.00000  -0.02655  -0.02655   1.92135
    D1        1.02326   0.00259   0.00000   0.02538   0.02587   1.04913
    D2        3.11794   0.00219   0.00000   0.02074   0.02118   3.13912
    D3       -1.07142   0.00299   0.00000   0.03003   0.03056  -1.04086
    D4       -1.02336  -0.00259   0.00000  -0.02537  -0.02586  -1.04922
    D5        1.07132  -0.00298   0.00000  -0.03001  -0.03054   1.04078
    D6       -3.11804  -0.00219   0.00000  -0.02072  -0.02117  -3.13921
[...]
 .03204374,-0.10460796,0.08955016,-0.00850413,-0.01609603,0.02696605,0.
 03872368,0.11234394,-0.00132199,0.00114077,0.00106976,-0.00004253,-0.0
 0053522,0.00040236,0.00098862,-0.00111747,-0.00000877,-0.00011358,0.00
 002414,-0.00063367,0.00015166,-0.00002770,-0.00004264,-0.00026846,0.00
 004126,-0.00001415,-0.00004499,0.00002805,-0.00001322,0.05475056,0.090
 62149,-0.21158746,-0.00023186,-0.00052087,0.00013466,-0.06713065,-0.10
 132011,0.22403733,0.00249224,-0.00700601,-0.00226789,-0.00011476,0.000
 46184,0.00032887,-0.00025452,0.00074678,0.00007800,0.00063735,0.001413
 84,0.00143290,-0.00015501,0.00012168,0.00012402,0.00002230,-0.00006597
 ,-0.00003475,0.00029529,0.00006644,0.00014850,-0.06605592,-0.03103828,
 -0.05224078,0.00397176,0.00460672,0.00873842,0.00575039,0.00432001,0.0
 0676870,0.08845856,0.00112200,0.00170488,0.00240601,0.00010769,0.00021
 412,0.00014086,-0.00007409,0.00004407,-0.00009439,-0.00102282,0.000819
 28,-0.00048491,-0.00005175,0.00001906,-0.00001672,-0.00002244,-0.00003
 913,-0.00000363,0.00010919,-0.00013752,-0.00003119,-0.03219204,-0.1050
 9703,-0.08984891,-0.00851009,-0.01617028,-0.02691572,0.00429934,0.0077
 6968,0.01270420,0.03889811,0.11290491,0.00132440,-0.00114344,0.0010695
 8,0.00004297,0.00053641,0.00040159,0.00011189,-0.00002454,-0.00063443,
 -0.00098693,0.00111648,-0.00000755,-0.00015176,0.00002756,-0.00004254,
 0.00004531,-0.00002795,-0.00001327,0.00026864,-0.00004108,-0.00001421,
 -0.05465107,-0.09092175,-0.21110689,0.00025591,0.00057282,0.00021273,-
 0.00677831,-0.01278938,-0.02321396,0.06700922,0.10163050,0.22349853,0.
 00031483,-0.00010614,0.00000042,0.00000158,-0.00008767,0.,-0.00000385,
 -0.00002810,0.00001060,-0.00000372,-0.00002791,-0.00001038,0.00007905,
 -0.00004492,0.00000001,0.00001159,0.00001786,0.00000139,0.00001163,0.0
 0001783,-0.00000138,-0.01471828,0.00702622,-0.00000605,-0.17954028,-0.
 00065722,0.00006009,0.00106986,-0.00163282,0.00025941,0.00106975,-0.00
 163204,-0.00025348,0.46938809,0.00156351,0.00167433,0.00000182,0.00017
 253,-0.00086584,0.00000054,-0.00002832,-0.00013723,0.00015140,-0.00002
 879,-0.00013666,-0.00015139,0.00031469,-0.00000076,-0.00000013,-0.0000
 1956,0.00002966,-0.00003678,-0.00001957,0.00002964,0.00003675,0.031245
 89,0.00267759,-0.00002026,0.00186540,-0.08043831,-0.00000030,0.0000936
 4,0.00060403,0.00009328,0.00009134,0.00059938,-0.00009756,0.03588670,0
 .49805388,-0.00000275,-0.00000113,0.00079356,-0.00000030,0.00000152,-0
 .00005098,0.00004307,-0.00010642,-0.00005368,-0.00004303,0.00010701,-0
 .00005350,-0.00000060,0.00000001,0.00001282,0.00000345,0.00001503,0.00
 000981,-0.00000346,-0.00001518,0.00000974,-0.00004138,-0.00001143,-0.0
 0152719,0.00005945,-0.00000061,-0.07913882,-0.00046856,0.00056362,-0.0
 0009838,0.00046684,-0.00056198,-0.00009785,0.00000622,0.00010898,0.580
 44859,-0.00001965,0.00030907,0.00016021,0.00002213,-0.00008758,-0.0000
 3436,0.00000342,-0.00005643,0.00002344,-0.00013939,-0.00008332,-0.0001
 3804,0.00002436,-0.00001237,-0.00000816,-0.00000686,0.00001221,0.00000
 751,-0.00004174,0.00001696,-0.00001420,0.00285058,0.00584615,0.0090657
 9,-0.07936892,-0.04324749,-0.07348314,0.00015679,-0.00066961,-0.000217
 83,-0.00055895,0.00211147,-0.00006869,-0.01482703,-0.01506365,-0.02799
 502,0.08941229,0.00016017,-0.00014672,0.00003264,0.00002414,0.00006014
 ,0.00009280,-0.00003891,-0.00001005,-0.00003288,-0.00005959,0.00031100
 ,0.00025261,-0.00001202,-0.00000150,-0.00000095,0.00000422,-0.00000050
 ,0.00000080,0.00009774,0.00000510,0.00001259,-0.01214630,-0.01894887,-
 0.02881003,-0.04182920,-0.10132645,-0.09181175,-0.00049826,0.00136037,
 0.00034183,0.00253825,-0.00549576,0.00036642,0.00051054,0.00045505,0.0
 0220414,0.04551676,0.11267416,0.00026917,0.00020263,0.00017407,-0.0000
 0309,-0.00008312,-0.00004614,-0.00000757,0.00002689,-0.00001722,-0.000
 09054,0.00014530,-0.00000776,0.00003489,0.00001328,0.00000851,0.000001
 55,-0.00000855,-0.00001657,0.00002018,-0.00001369,0.00004133,-0.000267
 43,0.00005230,-0.00045402,-0.07340704,-0.09335803,-0.21529493,0.000441
 30,-0.00034752,0.00107189,-0.00024904,0.00020642,0.00162614,0.00018595
 ,0.00046636,0.00034735,0.08192503,0.10364211,0.23067026,-0.00002017,0.
 00030818,-0.00015840,0.00002217,-0.00008712,0.00003430,-0.00013877,-0.
 00008352,0.00013782,0.00000323,-0.00005610,-0.00002328,0.00002424,-0.0
 0001233,0.00000818,-0.00004171,0.00001697,0.00001423,-0.00000680,0.000
 01216,-0.00000751,0.00284068,0.00581528,-0.00908897,-0.07918872,-0.042
 89536,0.07344447,-0.00055738,0.00210984,0.00006387,0.00015719,-0.00066
 886,0.00022031,-0.01479468,-0.01497408,0.02806177,0.00430234,0.0058801
 8,-0.00950408,0.08921036,0.00015928,-0.00014680,-0.00003248,0.00002406
 ,0.00005973,-0.00009302,-0.00005979,0.00030997,-0.00025251,-0.00003885
 ,-0.00001070,0.00003252,-0.00001194,-0.00000155,0.00000099,0.00009763,
 0.00000518,-0.00001253,0.00000411,-0.00000043,-0.00000087,-0.01211625,
 -0.01885929,0.02887698,-0.04148095,-0.10073909,0.09150053,0.00253963,-
 0.00549856,-0.00034416,-0.00050060,0.00136190,-0.00034237,0.00050778,0
 .00044636,-0.00220397,0.00589530,0.00708395,-0.01203149,0.04512884,0.1
 1202255,-0.00026902,-0.00020143,0.00017458,0.00000298,0.00008301,-0.00
 004626,0.00009051,-0.00014591,-0.00000691,0.00000759,-0.00002646,-0.00
 001736,-0.00003490,-0.00001324,0.00000860,-0.00002049,0.00001366,0.000
 04137,-0.00000156,0.00000844,-0.00001649,0.00030352,-0.00000894,-0.000
 53072,0.07336640,0.09305219,-0.21605530,0.00024245,-0.00018897,0.00162
 825,-0.00043982,0.00034674,0.00107429,-0.00016722,-0.00044629,0.000318
 68,0.00945457,0.01193427,-0.02167965,-0.08188965,-0.10332058,0.2315184
 8,-0.00048917,-0.00057102,-0.00000012,-0.00006059,0.00028875,-0.000000
 18,0.00000661,0.00006471,-0.00005472,0.00000666,0.00006460,0.00005460,
 -0.00011405,0.00001029,0.00000004,0.00000476,-0.00001785,0.00001122,0.
 00000475,-0.00001786,-0.00001120,-0.00528000,-0.00313235,0.00000738,-0
 .01487272,0.03665834,-0.00005124,0.00004015,0.00024804,-0.00039553,0.0
 0004042,0.00024986,0.00039472,-0.08762102,0.03007592,-0.00004247,0.001
 57805,0.00034436,0.00025057,0.00157783,0.00034301,-0.00025368,0.555981
 76,-0.00002319,-0.00028892,0.00000007,-0.00002055,0.00009694,-0.000000
 03,-0.00000847,0.00005235,-0.00002224,-0.00000849,0.00005234,0.0000222
 0,-0.00004815,0.00001384,0.,-0.00000038,-0.00000990,0.00000623,-0.0000
 0039,-0.00000989,-0.00000623,-0.00077355,-0.00061434,-0.00000015,0.006
 05662,-0.00281859,0.00000041,0.00008495,0.00000376,-0.00013144,0.00008
 581,0.00000503,0.00013216,0.03245983,-0.17802001,0.00014585,-0.0012695
 6,0.00077953,0.00003417,-0.00126853,0.00077668,-0.00003419,0.02955478,
 0.47159843,0.00000025,0.00000087,0.00003684,0.00000008,-0.00000032,0.0
 0001683,0.00001662,-0.00000436,0.00000454,-0.00001661,0.00000408,0.000
 00441,0.00000014,-0.00000004,-0.00000669,0.00000197,-0.00000094,-0.000
 00511,-0.00000198,0.00000100,-0.00000510,0.00000432,0.00000318,-0.0009
 3911,-0.00000095,-0.00001779,-0.00048281,-0.00015734,-0.00033152,0.000
 33815,0.00015600,0.00033184,0.00033645,-0.00004683,0.00014536,-0.07804
 733,-0.00055840,0.00090116,0.00017741,0.00056140,-0.00090340,0.0001801
 5,-0.00004657,0.00012506,0.55783034,0.00006782,0.00005322,0.00006924,0
 .00000152,-0.00001721,-0.00000499,0.00000304,-0.00000146,0.00000049,-0
 .00003956,0.00008636,0.00002502,0.00000297,0.00000757,-0.00000172,-0.0
 0000485,-0.00000679,-0.00000407,0.00001494,-0.00000586,0.00001214,0.00
 051052,-0.00182470,-0.00139632,-0.01471483,-0.01529890,-0.02873355,0.0
 0001675,0.00012537,0.00012029,-0.00000617,0.00098868,0.00065705,-0.079
 44168,-0.04265534,-0.07046359,-0.00645046,0.00088415,0.00046118,0.0014
 1508,-0.00030829,0.00047950,0.00375676,0.00606387,0.00969952,0.0898749
 2,-0.00002525,-0.00003655,-0.00001270,-0.00000808,0.00001740,-0.000006
 09,0.00000215,0.00000456,0.00000443,0.00000136,-0.00000345,-0.00000783
 ,-0.00000882,0.00000374,-0.00000108,-0.00000303,-0.00000431,0.00000103
 ,-0.00000112,-0.00000225,0.00000284,0.00055697,0.00045826,0.00072734,0
 .00013227,0.00039132,0.00154839,-0.00003225,0.00000758,0.00002033,0.00
 005567,0.00031579,-0.00009830,-0.04243863,-0.10165851,-0.09216449,0.00
 052802,0.00041650,0.00004353,-0.00025913,-0.00007758,-0.00016213,-0.01
 042330,-0.01732860,-0.02652757,0.04396218,0.11345666,-0.00006064,-0.00
 005561,-0.00007527,-0.00001261,0.00002710,0.00000414,-0.00000115,0.000
 00872,-0.00000501,-0.00001508,0.00002076,0.00003513,-0.00001146,0.0000
 0504,-0.00000253,0.00000140,-0.00000491,-0.00000286,0.00001067,-0.0000
 0027,0.00000586,0.00014588,-0.00069914,-0.00025046,-0.00045302,0.00060
 836,0.00007694,-0.00004757,-0.00007626,-0.00000298,-0.00026885,0.00058
 092,0.00042684,-0.07107989,-0.09302637,-0.21106884,0.00025576,0.000119
 42,0.00169586,-0.00039128,0.00020920,0.00088722,0.00067086,0.00051799,
 0.00072973,0.07932637,0.10370720,0.22698759,0.00006788,0.00005295,-0.0
 0006954,0.00000154,-0.00001729,0.00000509,-0.00003953,0.00008629,-0.00
 002507,0.00000303,-0.00000162,-0.00000052,0.00000301,0.00000757,0.0000
 0169,0.00001494,-0.00000587,-0.00001214,-0.00000487,-0.00000676,0.0000
 0404,0.00051086,-0.00182230,0.00140192,-0.01468093,-0.01520432,0.02880
 038,-0.00000549,0.00098737,-0.00066008,0.00001674,0.00012459,-0.000121
 21,-0.07926809,-0.04230955,0.07044190,0.00141514,-0.00030992,-0.000479
 26,-0.00645151,0.00088271,-0.00045305,0.00374427,0.00603105,-0.0097230
 2,0.00406925,0.00605826,-0.00921278,0.08968172,-0.00002507,-0.00003600
 ,0.00001225,-0.00000803,0.00001729,0.00000612,0.00000144,-0.00000354,0
 .00000794,0.00000214,0.00000445,-0.00000449,-0.00000877,0.00000372,0.0
 0000107,-0.00000115,-0.00000225,-0.00000281,-0.00000304,-0.00000429,-0
 .00000104,0.00055660,0.00045882,-0.00073248,0.00013074,0.00038206,-0.0
 0154738,0.00005679,0.00031380,0.00009868,-0.00003103,0.00000750,-0.000
 02019,-0.04209298,-0.10104885,0.09185668,-0.00025779,-0.00007752,0.000
 16543,0.00052644,0.00041553,-0.00004041,-0.01039334,-0.01724225,0.0265
 9823,0.00607349,0.00749233,-0.01210770,0.04357502,0.11277597,0.0000605
 5,0.00005526,-0.00007528,0.00001261,-0.00002709,0.00000416,0.00001517,
 -0.00002083,0.00003515,0.00000114,-0.00000867,-0.00000491,0.00001147,-
 0.00000506,-0.00000255,-0.00001068,0.00000029,0.00000589,-0.00000136,0
 .00000493,-0.00000285,-0.00014815,0.00070012,-0.00025306,0.00047005,-0
 .00058931,0.00004786,0.00026822,-0.00058285,0.00042945,0.00004754,0.00
 007607,-0.00000224,0.07105908,0.09271806,-0.21185077,0.00039130,-0.000
 20568,0.00088754,-0.00024726,-0.00011645,0.00169736,-0.00064070,-0.000
 46682,0.00065733,0.00916060,0.01200250,-0.02226409,-0.07930154,-0.1033
 8706,0.22786298,0.00003504,-0.00034346,0.00000015,-0.00001570,0.000068
 25,-0.00000005,0.00000368,0.00003802,-0.00002107,0.00000369,0.00003798
 ,0.00002097,-0.00003545,0.00001747,0.,0.00000180,-0.00001249,0.0000017
 9,0.00000178,-0.00001250,-0.00000178,-0.00025707,-0.00083573,0.0000018
 4,0.00081221,0.00320559,-0.00000555,-0.00001654,0.00010630,-0.00006837
 ,-0.00001657,0.00010663,0.00006802,-0.00866941,-0.00099811,0.00000582,
 0.00033058,-0.00012200,0.00006891,0.00033004,-0.00012225,-0.00006871,-
 0.30639078,0.00643776,0.00013468,0.00046338,0.00027174,0.00051431,0.00
 046214,0.00027005,-0.00051559,0.33327449,0.00010271,0.00029610,0.00000
 003,0.00002144,-0.00011185,0.00000007,-0.00000102,-0.00003788,0.000023
 08,-0.00000107,-0.00003783,-0.00002303,0.00004835,-0.00000771,-0.00000
 002,-0.00000103,0.00000888,-0.00000620,-0.00000103,0.00000889,0.000006
 19,0.00148774,0.00125241,-0.00000184,0.00023205,-0.00690358,0.00001172
 ,-0.00002577,-0.00000947,0.00010711,-0.00002584,-0.00000971,-0.0001071
 0,0.03321242,-0.00009544,-0.00002147,-0.00010359,0.00001257,0.00028585
 ,-0.00010528,0.00001154,-0.00028510,0.00493888,-0.04675692,-0.00000346
 ,-0.00048956,0.00129852,-0.00042105,-0.00049023,0.00129914,0.00041769,
 -0.00836460,0.05115439,-0.00000017,-0.00000026,0.00000354,-0.00000003,
 0.00000013,-0.00000738,-0.00000102,0.00000312,-0.00000346,0.00000101,-
 0.00000305,-0.00000342,-0.00000005,0.,0.00000120,0.00000075,0.00000072
 ,0.00000025,-0.00000075,-0.00000073,0.00000024,-0.00000205,-0.00000050
 ,0.00060831,-0.00000038,0.00000982,0.00026734,0.00001542,-0.00007715,-
 0.00003144,-0.00001535,0.00007707,-0.00003143,-0.00005009,-0.00000182,
 -0.00143432,0.00043513,0.00004694,0.00022565,-0.00043493,-0.00004622,0
 .00022740,0.00013692,-0.00000426,-0.04714861,0.00037939,0.00008065,0.0
 0003488,-0.00037826,-0.00008501,0.00003465,-0.00014734,-0.00000334,0.0
 4615524,-0.00001662,0.00007609,-0.00000943,0.00000492,-0.00001467,0.00
 000099,-0.00000089,-0.00001146,0.00000829,0.00000380,-0.00001532,-0.00
 000495,0.00000812,-0.00000618,-0.00000034,-0.00000124,0.00000376,0.000
 00094,-0.00000191,0.00000530,-0.00000088,0.00003301,0.00026747,0.00006
 393,0.00116489,0.00017081,0.00116712,0.00001311,-0.00004419,0.00002297
 ,-0.00009712,-0.00008135,-0.00010276,0.00287325,0.00526466,0.00944791,
 0.00003810,-0.00003259,-0.00035250,-0.00002385,-0.00001138,0.00002047,
 -0.07546658,-0.04133550,-0.06890599,-0.00006470,0.00239725,0.00030396,
 0.00012852,-0.00077589,-0.00015772,-0.00995441,-0.01559501,-0.02713026
 ,0.07796503,-0.00004220,0.00006624,-0.00002384,0.00000041,-0.00001080,
 -0.00000394,-0.00000223,-0.00001344,0.00000524,-0.00000395,-0.00000332
 ,0.00000783,0.00000582,-0.00000201,-0.00000062,-0.00000079,0.00000126,
 -0.00000016,0.00000525,0.00000322,0.00000375,-0.00018231,-0.00002232,0
 .00014288,-0.00168030,0.00121989,-0.00045179,-0.00002707,-0.00003316,-
 0.00000170,-0.00002014,0.00029560,0.00018547,-0.01043007,-0.01696918,-
 0.02685049,0.00094688,0.00028346,0.00050800,0.00011401,0.00002854,0.00
 007796,-0.04070093,-0.10594084,-0.09964203,0.00266981,-0.00589241,0.00
 050623,-0.00062885,0.00115884,0.00035899,-0.00018528,-0.00015460,0.001
 28061,0.04360547,0.11808302,-0.00000383,0.00004359,-0.00001047,0.00000
 092,-0.00001688,-0.00000629,-0.00000109,-0.00000656,0.00000183,0.00000
 397,-0.00000219,0.00000349,0.00000823,0.00000026,0.00000042,-0.0000005
 6,-0.00000008,-0.00000350,0.00000322,0.00000133,0.00000735,0.00015163,
 0.00020826,0.00028134,-0.00011148,0.00026573,0.00013983,0.00000719,0.0
 0001856,-0.00002217,-0.00008880,0.00016113,-0.00001484,0.00041750,0.00
 035875,0.00072089,0.00058335,-0.00022256,0.00020417,-0.00006770,-0.000
 05638,-0.00008045,-0.06844504,-0.10040667,-0.21669849,-0.00006664,0.00
 041210,0.00165442,0.00033151,-0.00038293,0.00085441,0.00007491,0.00123
 326,0.00055974,0.07637326,0.11119331,0.23356188,-0.00001659,0.00007607
 ,0.00000935,0.00000491,-0.00001465,-0.00000099,0.00000379,-0.00001533,
 0.00000498,-0.00000088,-0.00001144,-0.00000827,0.00000811,-0.00000618,
 0.00000034,-0.00000192,0.00000530,0.00000089,-0.00000124,0.00000376,-0
 .00000094,0.00003283,0.00026754,-0.00006452,0.00116362,0.00016683,-0.0
 0116891,-0.00009717,-0.00008125,0.00010320,0.00001300,-0.00004422,-0.0
 0002278,0.00286198,0.00523319,-0.00946739,-0.00002388,-0.00001132,-0.0
 0002050,0.00003787,-0.00003111,0.00035262,-0.07531066,-0.04099702,0.06
 888042,0.00012822,-0.00077489,0.00016109,-0.00006520,0.00239567,-0.000
 30976,-0.00992411,-0.01550792,0.02719281,0.00335229,0.00629043,-0.0093
 5273,0.07779292,-0.00004220,0.00006618,0.00002383,0.00000041,-0.000010
 74,0.00000393,-0.00000396,-0.00000335,-0.00000782,-0.00000224,-0.00001
 344,-0.00000524,0.00000580,-0.00000201,0.00000062,0.00000523,0.0000032
 2,-0.00000373,-0.00000079,0.00000126,0.00000014,-0.00018307,-0.0000240
 7,-0.00014132,-0.00167986,0.00122048,0.00045045,-0.00001959,0.00029475
 ,-0.00018656,-0.00002697,-0.00003335,0.00000143,-0.01040042,-0.0168820
 1,0.02691956,0.00011416,0.00002846,-0.00007846,0.00094460,0.00028254,-
 0.00050950,-0.04036542,-0.10528827,0.09932325,-0.00063038,0.00115884,-
 0.00035918,0.00266931,-0.00589514,-0.00048496,-0.00018700,-0.00016267,
 -0.00127796,0.00630669,0.00789759,-0.01266982,0.04323031,0.11735709,0.
 00000400,-0.00004395,-0.00001057,-0.00000093,0.00001693,-0.00000635,-0
 .00000397,0.00000224,0.00000351,0.00000112,0.00000664,0.00000186,-0.00
 000826,-0.00000024,0.00000043,-0.00000324,-0.00000134,0.00000736,0.000
 00056,0.00000006,-0.00000349,-0.00015093,-0.00020782,0.00028272,0.0001
 1604,-0.00026938,0.00014039,0.00008901,-0.00016217,-0.00001389,-0.0000
 0712,-0.00001830,-0.00002207,-0.00038614,-0.00030690,0.00064508,0.0000
 6729,0.00005600,-0.00008036,-0.00058648,0.00022229,0.00020567,0.068417
 49,0.10008803,-0.21750341,-0.00032860,0.00038291,0.00085439,0.00005997
 ,-0.00038990,0.00165763,-0.00006246,-0.00121337,0.00053746,0.00930478,
 0.01256799,-0.02116214,-0.07633908,-0.11086211,0.23445699,-0.09871412,
 0.05162924,-0.00002287,-0.02321676,0.04684752,-0.00002374,0.00176837,0
 .00203023,-0.00400393,0.00176907,0.00201930,0.00400185,-0.00935411,-0.
 00012833,0.00000308,0.00311020,-0.00006907,0.00019390,0.00310967,-0.00
 006912,-0.00019595,-0.20904825,-0.03543587,0.00001645,-0.02806962,0.00
 531723,-0.00000244,-0.03567221,-0.00380268,0.00726659,-0.03566596,-0.0
 0381786,-0.00726145,0.00120645,0.00428952,-0.00000787,0.00130309,-0.00
 090040,0.00072233,0.00130257,-0.00090092,-0.00072251,-0.00113646,-0.00
 102089,0.00000229,0.00039709,0.00000863,0.00016405,0.00039657,0.000008
 70,-0.00016496,-0.00043877,0.00066834,-0.00000074,0.00004229,0.0002660
 6,0.00018216,0.00004211,0.00026538,-0.00018305,0.42686879,0.01292083,-
 0.20170651,0.00007217,0.00859583,-0.00401854,-0.00000012,0.01260292,-0
 .03692763,0.00630482,0.01260823,-0.03696992,-0.00625653,-0.00101589,0.
 00112672,0.00000034,-0.00024354,0.00123006,-0.00067796,-0.00024228,0.0
 0123151,0.00067650,0.00395755,-0.09172755,0.00001348,0.04457675,0.0015
 8112,-0.00000529,-0.01461356,0.00092843,-0.00103593,-0.01469164,0.0009
 2159,0.00104443,-0.00006025,-0.00831712,0.00001476,-0.00044559,0.00253
 705,0.00012859,-0.00044620,0.00252956,-0.00013313,0.00278056,0.0009396
 2,-0.00000260,0.00032378,-0.00001783,0.00043956,0.00032161,-0.00001962
 ,-0.00043912,0.00062364,-0.00105479,0.00000124,-0.00017395,0.00000442,
 -0.00013221,-0.00017376,0.00000462,0.00013240,-0.06720503,0.36772481,-
 0.00001382,0.00007984,-0.06424896,0.00000011,-0.00000699,0.00175831,-0
 .01119784,0.02763013,0.00652547,0.01117717,-0.02757209,0.00655582,0.00
 000230,0.00000031,0.00067256,-0.00089011,-0.00071672,0.00030297,0.0008
 8884,0.00071488,0.00030033,0.00001109,0.00001112,-0.06410988,-0.000051
 83,-0.00000228,0.00052784,0.02972530,0.00069009,0.00657088,-0.02968661
 ,-0.00068602,0.00655513,0.00000079,0.00000649,0.00011514,0.00014846,0.
 00108012,0.00046647,-0.00014682,-0.00108608,0.00047107,-0.00000238,-0.
 00000011,0.00052448,0.00060868,0.00004696,0.00027903,-0.00061003,-0.00
 004499,0.00028133,-0.00000049,0.00000097,0.00000415,-0.00004980,0.0001
 3632,0.00000856,0.00005019,-0.00013655,0.00000877,0.00003679,-0.000145
 41,0.09643052\\-0.00001030,0.00001502,-0.00000543,0.00000030,0.0000108
 6,-0.00000226,-0.00000364,0.00000476,0.00000130,-0.00000249,-0.0000004
 4,-0.00000172,-0.00000786,-0.00000301,-0.00000046,0.00000103,0.0000057
 3,-0.00000332,0.00000001,0.00000624,0.00000331,0.00001772,-0.00000310,
 -0.00000078,-0.00000773,-0.00000128,0.00000089,-0.00000984,-0.00000059
 ,0.00000370,-0.00000653,-0.00000357,-0.00000503,0.00001051,-0.00000150
 ,-0.00000115,0.00000471,-0.00000058,0.00000459,-0.00000242,0.00000173,
 -0.00000837,0.00000696,-0.00001242,0.00000004,-0.00000188,-0.00000329,
 -0.00000547,-0.00000034,-0.00000455,0.00000581,-0.00000314,-0.00000441
 ,-0.00000034,0.00000081,0.00000038,0.00000643,0.00000119,0.00000031,-0
 .00000639,0.00001291,-0.00000630,0.00001465\\\@


 IT PROBABLY IS NOT POSSIBLE FOR A SCIENTIST TO INTERROGATE NATURE 
 FROM A WHOLLY DISINTERESTED VIEWPOINT.
 EVEN IF HE HAS NO PARTICULAR AXE TO GRIND, HE IS LIKELY TO HAVE 
 A DISTINCTIVE WAY OF VIEWING NATURE.

                                                   -- JOHN LOSEE
 Job cpu time:       0 days  0 hours 29 minutes 57.3 seconds.
 File lengths (MBytes):  RWF=    158 Int=      0 D2E=      0 Chk=      6 Scr=      1
 Normal termination of Gaussian 09 at Tue Feb 22 09:33:30 2022.
