 Entering Gaussian System, Link 0=g09
 Initial command:
 /cm/shared/apps/gaussian/g09revD.01/g09/l1.exe "//home/sweav003/CHB/Weird_totest/hartwig/G09-PMX610calcall.com.o9723405.tmp/Gau-22587.inp" -scrdir="//home/sweav003/CHB/Weird_totest/hartwig/G09-PMX610calcall.com.o9723405.tmp/"
 Entering Link 1 = /cm/shared/apps/gaussian/g09revD.01/g09/l1.exe PID=     22588.
  
 Copyright (c) 1988,1990,1992,1993,1995,1998,2003,2009,2013,
            Gaussian, Inc.  All Rights Reserved.
  
 This is part of the Gaussian(R) 09 program.  It is based on
 the Gaussian(R) 03 system (copyright 2003, Gaussian, Inc.),
 the Gaussian(R) 98 system (copyright 1998, Gaussian, Inc.),
 the Gaussian(R) 94 system (copyright 1995, Gaussian, Inc.),
 the Gaussian 92(TM) system (copyright 1992, Gaussian, Inc.),
 the Gaussian 90(TM) system (copyright 1990, Gaussian, Inc.),
 the Gaussian 88(TM) system (copyright 1988, Gaussian, Inc.),
 the Gaussian 86(TM) system (copyright 1986, Carnegie Mellon
 University), and the Gaussian 82(TM) system (copyright 1983,
 Carnegie Mellon University). Gaussian is a federally registered
 trademark of Gaussian, Inc.
  
 This software contains proprietary and confidential information,
 including trade secrets, belonging to Gaussian, Inc.
  
 This software is provided under written license and may be
 used, copied, transmitted, or stored only in accord with that
 written license.
  
 The following legend is applicable only to US Government
 contracts under FAR:
  
                    RESTRICTED RIGHTS LEGEND
  
 Use, reproduction and disclosure by the US Government is
 subject to restrictions as set forth in subparagraphs (a)
 and (c) of the Commercial Computer Software - Restricted
 Rights clause in FAR 52.227-19.
  
 Gaussian, Inc.
 340 Quinnipiac St., Bldg. 40, Wallingford CT 06492
  
  
 ---------------------------------------------------------------
 Warning -- This program may not be used in any manner that
 competes with the business of Gaussian, Inc. or will provide
 assistance to any competitor of Gaussian, Inc.  The licensee
 of this program is prohibited from giving any competitor of
 Gaussian, Inc. access to this program.  By using this program,
 the user acknowledges that Gaussian, Inc. is engaged in the
 business of creating and licensing software in the field of
 computational chemistry and represents and warrants to the
 licensee that it is not a competitor of Gaussian, Inc. and that
 it will not use this program in any manner prohibited above.
 ---------------------------------------------------------------
  

 Cite this work as:
 Gaussian 09, Revision D.01,
 M. J. Frisch, G. W. Trucks, H. B. Schlegel, G. E. Scuseria, 
 M. A. Robb, J. R. Cheeseman, G. Scalmani, V. Barone, B. Mennucci, 
 G. A. Petersson, H. Nakatsuji, M. Caricato, X. Li, H. P. Hratchian, 
 A. F. Izmaylov, J. Bloino, G. Zheng, J. L. Sonnenberg, M. Hada, 
 M. Ehara, K. Toyota, R. Fukuda, J. Hasegawa, M. Ishida, T. Nakajima, 
 Y. Honda, O. Kitao, H. Nakai, T. Vreven, J. A. Montgomery, Jr., 
 J. E. Peralta, F. Ogliaro, M. Bearpark, J. J. Heyd, E. Brothers, 
 K. N. Kudin, V. N. Staroverov, T. Keith, R. Kobayashi, J. Normand, 
 K. Raghavachari, A. Rendell, J. C. Burant, S. S. Iyengar, J. Tomasi, 
 M. Cossi, N. Rega, J. M. Millam, M. Klene, J. E. Knox, J. B. Cross, 
 V. Bakken, C. Adamo, J. Jaramillo, R. Gomperts, R. E. Stratmann, 
 O. Yazyev, A. J. Austin, R. Cammi, C. Pomelli, J. W. Ochterski, 
 R. L. Martin, K. Morokuma, V. G. Zakrzewski, G. A. Voth, 
 P. Salvador, J. J. Dannenberg, S. Dapprich, A. D. Daniels, 
 O. Farkas, J. B. Foresman, J. V. Ortiz, J. Cioslowski, 
 and D. J. Fox, Gaussian, Inc., Wallingford CT, 2013.
 
 ******************************************
 Gaussian 09:  ES64L-G09RevD.01 24-Apr-2013
                 7-Mar-2022 
 ******************************************
 %nprocshared=21
 Will use up to   21 processors via shared memory.
 %mem=100MW
 %chk=PMX610calcall.chk
 ----------------------------------------------------------------------
 # opt=calcall freq b3lyp/6-311+g(d,p) scrf=check pop=(npa,hirshfeld,mb
 s,chelpg) geom=connectivity
 ----------------------------------------------------------------------
 1/10=4,14=-1,18=20,19=15,26=3,38=1,40=1,57=2/1,3;
 2/9=110,12=2,17=6,18=5,40=1/2;
 3/5=4,6=6,7=111,11=2,16=1,25=1,30=1,70=2,71=2,74=-5,140=1/1,2,3;
 4//1;
 5/5=2,38=5/2;
 8/6=4,10=90,11=11/1;
 11/6=1,8=1,9=11,15=111,16=1/1,2,10;
 10/6=1/2;
 6/7=2,8=2,9=2,10=2,15=8,18=1,20=3,27=100,28=1,40=-1,79=1/1,2,7;
 7/10=1,25=1/1,2,3,16;
 1/10=4,14=-1,18=20,19=15,26=3/3(3);
 2/9=110/2;
 7/8=1,9=1,25=1,44=-1/16;
 99//99;
 2/9=110/2;
 3/5=4,6=6,7=111,11=2,16=1,25=1,30=1,70=5,71=2,74=-5,140=1/1,2,3;
 4/5=5,16=3,69=1/1;
 5/5=2,38=5/2;
 8/6=4,10=90,11=11/1;
 11/6=1,8=1,9=11,15=111,16=1/1,2,10;
 10/6=1/2;
 7/10=1,25=1/1,2,3,16;
 1/10=4,14=-1,18=20,19=15,26=3/3(-8);
 2/9=110/2;
 6/7=2,8=2,9=2,10=2,15=8,18=1,19=2,20=3,27=100,28=1,40=-1,79=1/1,2,7;
 7/8=1,9=1,25=1,44=-1/16;
 99//99;
 ---
 tit
 ---
 Symbolic Z-matrix:
 Charge =  0 Multiplicity = 1
 C                     3.01474  -0.9171    0.06103 
 C                     2.63152   0.43914  -0.06119 
 C                     3.61374   1.4342   -0.16486 
 C                     4.93227   1.03053  -0.14236 
 C                     5.32654  -0.30373  -0.02333 
 C                     4.35687  -1.29445   0.08025 
 C                     0.59156  -0.42738   0.04394 
 H                     3.34546   2.47805  -0.259 
 H                     6.38153  -0.54589  -0.01313 
 H                     4.64842  -2.33318   0.17345 
 S                     1.5791   -1.91107   0.16946 
 N                     1.27334   0.67029  -0.06701 
 F                     5.90314   1.9732   -0.24026 
 C                    -0.87426  -0.48527   0.06682 
 C                    -1.57131  -1.68852   0.23546 
 C                    -1.60385   0.70514  -0.0754 
 C                    -2.96073  -1.70273   0.23804 
 H                    -1.03539  -2.62245   0.35958 
 C                    -2.99123   0.6966   -0.05737 
 H                    -1.08293   1.64612  -0.19625 
 C                    -3.68422  -0.52218   0.07802 
 H                    -3.5092   -2.62914   0.35976 
 O                    -5.05372  -0.56973   0.11455 
 O                    -3.67311   1.88005  -0.2199 
 C                    -4.27091   2.40134   0.97719 
 H                    -4.77676   3.3216    0.68734 
 H                    -4.99365   1.69601   1.39573 
 H                    -3.5       2.62752   1.72095 
 C                    -5.72082  -0.26551  -1.12246 
 H                    -5.45668  -1.00519  -1.8851 
 H                    -6.78749  -0.32704  -0.91079 
 H                    -5.46543   0.73669  -1.47225 
 

 GradGradGradGradGradGradGradGradGradGradGradGradGradGradGradGradGradGrad
 Berny optimization.
 Initialization pass.
                           ----------------------------
                           !    Initial Parameters    !
                           ! (Angstroms and Degrees)  !
 --------------------------                            --------------------------
 ! Name  Definition              Value          Derivative Info.                !
 --------------------------------------------------------------------------------
 ! R1    R(1,2)                  1.4146         calculate D2E/DX2 analytically  !
 ! R2    R(1,6)                  1.3943         calculate D2E/DX2 analytically  !
 ! R3    R(1,11)                 1.7495         calculate D2E/DX2 analytically  !
 ! R4    R(2,3)                  1.402          calculate D2E/DX2 analytically  !
 ! R5    R(2,12)                 1.3777         calculate D2E/DX2 analytically  !
 ! R6    R(3,4)                  1.3791         calculate D2E/DX2 analytically  !
 ! R7    R(3,8)                  1.0819         calculate D2E/DX2 analytically  !
 ! R8    R(4,5)                  1.3964         calculate D2E/DX2 analytically  !
 ! R9    R(4,13)                 1.3568         calculate D2E/DX2 analytically  !
 ! R10   R(5,6)                  1.3901         calculate D2E/DX2 analytically  !
 ! R11   R(5,9)                  1.0825         calculate D2E/DX2 analytically  !
 ! R12   R(6,10)                 1.0829         calculate D2E/DX2 analytically  !
 ! R13   R(7,11)                 1.7867         calculate D2E/DX2 analytically  !
 ! R14   R(7,12)                 1.2969         calculate D2E/DX2 analytically  !
 ! R15   R(7,14)                 1.4671         calculate D2E/DX2 analytically  !
 ! R16   R(14,15)                1.4008         calculate D2E/DX2 analytically  !
 ! R17   R(14,16)                1.4034         calculate D2E/DX2 analytically  !
 ! R18   R(15,17)                1.3895         calculate D2E/DX2 analytically  !
 ! R19   R(15,18)                1.0839         calculate D2E/DX2 analytically  !
 ! R20   R(16,19)                1.3875         calculate D2E/DX2 analytically  !
 ! R21   R(16,20)                1.0823         calculate D2E/DX2 analytically  !
 ! R22   R(17,21)                1.3938         calculate D2E/DX2 analytically  !
 ! R23   R(17,22)                1.0835         calculate D2E/DX2 analytically  !
 ! R24   R(19,21)                1.4085         calculate D2E/DX2 analytically  !
 ! R25   R(19,24)                1.3755         calculate D2E/DX2 analytically  !
 ! R26   R(21,23)                1.3708         calculate D2E/DX2 analytically  !
 ! R27   R(23,29)                1.438          calculate D2E/DX2 analytically  !
 ! R28   R(24,25)                1.436          calculate D2E/DX2 analytically  !
 ! R29   R(25,26)                1.0894         calculate D2E/DX2 analytically  !
 ! R30   R(25,27)                1.0932         calculate D2E/DX2 analytically  !
 ! R31   R(25,28)                1.0948         calculate D2E/DX2 analytically  !
 ! R32   R(29,30)                1.0948         calculate D2E/DX2 analytically  !
 ! R33   R(29,31)                1.0892         calculate D2E/DX2 analytically  !
 ! R34   R(29,32)                1.0918         calculate D2E/DX2 analytically  !
 ! A1    A(2,1,6)              121.427          calculate D2E/DX2 analytically  !
 ! A2    A(2,1,11)             109.1322         calculate D2E/DX2 analytically  !
 ! A3    A(6,1,11)             129.4407         calculate D2E/DX2 analytically  !
 ! A4    A(1,2,3)              119.8049         calculate D2E/DX2 analytically  !
 ! A5    A(1,2,12)             115.3579         calculate D2E/DX2 analytically  !
 ! A6    A(3,2,12)             124.8372         calculate D2E/DX2 analytically  !
 ! A7    A(2,3,4)              117.4421         calculate D2E/DX2 analytically  !
 ! A8    A(2,3,8)              121.1645         calculate D2E/DX2 analytically  !
 ! A9    A(4,3,8)              121.3934         calculate D2E/DX2 analytically  !
 ! A10   A(3,4,5)              123.4368         calculate D2E/DX2 analytically  !
 ! A11   A(3,4,13)             118.6596         calculate D2E/DX2 analytically  !
 ! A12   A(5,4,13)             117.9036         calculate D2E/DX2 analytically  !
 ! A13   A(4,5,6)              119.3648         calculate D2E/DX2 analytically  !
 ! A14   A(4,5,9)              119.324          calculate D2E/DX2 analytically  !
 ! A15   A(6,5,9)              121.3112         calculate D2E/DX2 analytically  !
 ! A16   A(1,6,5)              118.5244         calculate D2E/DX2 analytically  !
 ! A17   A(1,6,10)             121.3285         calculate D2E/DX2 analytically  !
 ! A18   A(5,6,10)             120.1471         calculate D2E/DX2 analytically  !
 ! A19   A(11,7,12)            114.7255         calculate D2E/DX2 analytically  !
 ! A20   A(11,7,14)            121.222          calculate D2E/DX2 analytically  !
 ! A21   A(12,7,14)            124.0525         calculate D2E/DX2 analytically  !
 ! A22   A(1,11,7)              88.7061         calculate D2E/DX2 analytically  !
 ! A23   A(2,12,7)             112.0782         calculate D2E/DX2 analytically  !
 ! A24   A(7,14,15)            122.2051         calculate D2E/DX2 analytically  !
 ! A25   A(7,14,16)            118.9693         calculate D2E/DX2 analytically  !
 ! A26   A(15,14,16)           118.8241         calculate D2E/DX2 analytically  !
 ! A27   A(14,15,17)           120.438          calculate D2E/DX2 analytically  !
 ! A28   A(14,15,18)           120.523          calculate D2E/DX2 analytically  !
 ! A29   A(17,15,18)           119.0379         calculate D2E/DX2 analytically  !
 ! A30   A(14,16,19)           120.8822         calculate D2E/DX2 analytically  !
 ! A31   A(14,16,20)           119.905          calculate D2E/DX2 analytically  !
 ! A32   A(19,16,20)           119.2121         calculate D2E/DX2 analytically  !
 ! A33   A(15,17,21)           120.6749         calculate D2E/DX2 analytically  !
 ! A34   A(15,17,22)           121.0076         calculate D2E/DX2 analytically  !
 ! A35   A(21,17,22)           118.3169         calculate D2E/DX2 analytically  !
 ! A36   A(16,19,21)           119.9014         calculate D2E/DX2 analytically  !
 ! A37   A(16,19,24)           119.2659         calculate D2E/DX2 analytically  !
 ! A38   A(21,19,24)           120.793          calculate D2E/DX2 analytically  !
 ! A39   A(17,21,19)           119.2445         calculate D2E/DX2 analytically  !
 ! A40   A(17,21,23)           119.0869         calculate D2E/DX2 analytically  !
 ! A41   A(19,21,23)           121.6072         calculate D2E/DX2 analytically  !
 ! A42   A(21,23,29)           115.6716         calculate D2E/DX2 analytically  !
 ! A43   A(19,24,25)           114.8474         calculate D2E/DX2 analytically  !
 ! A44   A(24,25,26)           106.1503         calculate D2E/DX2 analytically  !
 ! A45   A(24,25,27)           111.1105         calculate D2E/DX2 analytically  !
 ! A46   A(24,25,28)           110.3764         calculate D2E/DX2 analytically  !
 ! A47   A(26,25,27)           109.8715         calculate D2E/DX2 analytically  !
 ! A48   A(26,25,28)           109.4632         calculate D2E/DX2 analytically  !
 ! A49   A(27,25,28)           109.7995         calculate D2E/DX2 analytically  !
 ! A50   A(23,29,30)           110.1445         calculate D2E/DX2 analytically  !
 ! A51   A(23,29,31)           105.9736         calculate D2E/DX2 analytically  !
 ! A52   A(23,29,32)           111.1798         calculate D2E/DX2 analytically  !
 ! A53   A(30,29,31)           109.4806         calculate D2E/DX2 analytically  !
 ! A54   A(30,29,32)           109.9129         calculate D2E/DX2 analytically  !
 ! A55   A(31,29,32)           110.0717         calculate D2E/DX2 analytically  !
 ! D1    D(6,1,2,3)             -0.0523         calculate D2E/DX2 analytically  !
 ! D2    D(6,1,2,12)           179.9788         calculate D2E/DX2 analytically  !
 ! D3    D(11,1,2,3)          -179.994          calculate D2E/DX2 analytically  !
 ! D4    D(11,1,2,12)            0.037          calculate D2E/DX2 analytically  !
 ! D5    D(2,1,6,5)              0.0309         calculate D2E/DX2 analytically  !
 ! D6    D(2,1,6,10)          -179.9741         calculate D2E/DX2 analytically  !
 ! D7    D(11,1,6,5)           179.9596         calculate D2E/DX2 analytically  !
 ! D8    D(11,1,6,10)           -0.0454         calculate D2E/DX2 analytically  !
 ! D9    D(2,1,11,7)            -0.0621         calculate D2E/DX2 analytically  !
 ! D10   D(6,1,11,7)          -179.9978         calculate D2E/DX2 analytically  !
 ! D11   D(1,2,3,4)              0.0244         calculate D2E/DX2 analytically  !
 ! D12   D(1,2,3,8)           -179.986          calculate D2E/DX2 analytically  !
 ! D13   D(12,2,3,4)           179.9902         calculate D2E/DX2 analytically  !
 ! D14   D(12,2,3,8)            -0.0202         calculate D2E/DX2 analytically  !
 ! D15   D(1,2,12,7)             0.0246         calculate D2E/DX2 analytically  !
 ! D16   D(3,2,12,7)          -179.9426         calculate D2E/DX2 analytically  !
 ! D17   D(2,3,4,5)              0.0239         calculate D2E/DX2 analytically  !
 ! D18   D(2,3,4,13)          -179.9625         calculate D2E/DX2 analytically  !
 ! D19   D(8,3,4,5)           -179.9657         calculate D2E/DX2 analytically  !
 ! D20   D(8,3,4,13)             0.0479         calculate D2E/DX2 analytically  !
 ! D21   D(3,4,5,6)             -0.0453         calculate D2E/DX2 analytically  !
 ! D22   D(3,4,5,9)            179.9806         calculate D2E/DX2 analytically  !
 ! D23   D(13,4,5,6)           179.9412         calculate D2E/DX2 analytically  !
 ! D24   D(13,4,5,9)            -0.033          calculate D2E/DX2 analytically  !
 ! D25   D(4,5,6,1)              0.0166         calculate D2E/DX2 analytically  !
 ! D26   D(4,5,6,10)          -179.9785         calculate D2E/DX2 analytically  !
 ! D27   D(9,5,6,1)            179.9902         calculate D2E/DX2 analytically  !
 ! D28   D(9,5,6,10)            -0.0049         calculate D2E/DX2 analytically  !
 ! D29   D(12,7,11,1)            0.0823         calculate D2E/DX2 analytically  !
 ! D30   D(14,7,11,1)         -179.9766         calculate D2E/DX2 analytically  !
 ! D31   D(11,7,12,2)           -0.0756         calculate D2E/DX2 analytically  !
 ! D32   D(14,7,12,2)          179.9852         calculate D2E/DX2 analytically  !
 ! D33   D(11,7,14,15)           2.3572         calculate D2E/DX2 analytically  !
 ! D34   D(11,7,14,16)        -178.1056         calculate D2E/DX2 analytically  !
 ! D35   D(12,7,14,15)        -177.7074         calculate D2E/DX2 analytically  !
 ! D36   D(12,7,14,16)           1.8298         calculate D2E/DX2 analytically  !
 ! D37   D(7,14,15,17)        -179.353          calculate D2E/DX2 analytically  !
 ! D38   D(7,14,15,18)           0.2622         calculate D2E/DX2 analytically  !
 ! D39   D(16,14,15,17)          1.1092         calculate D2E/DX2 analytically  !
 ! D40   D(16,14,15,18)       -179.2757         calculate D2E/DX2 analytically  !
 ! D41   D(7,14,16,19)        -179.8944         calculate D2E/DX2 analytically  !
 ! D42   D(7,14,16,20)          -0.1959         calculate D2E/DX2 analytically  !
 ! D43   D(15,14,16,19)         -0.3414         calculate D2E/DX2 analytically  !
 ! D44   D(15,14,16,20)        179.3571         calculate D2E/DX2 analytically  !
 ! D45   D(14,15,17,21)         -0.2299         calculate D2E/DX2 analytically  !
 ! D46   D(14,15,17,22)        179.5035         calculate D2E/DX2 analytically  !
 ! D47   D(18,15,17,21)       -179.8507         calculate D2E/DX2 analytically  !
 ! D48   D(18,15,17,22)         -0.1173         calculate D2E/DX2 analytically  !
 ! D49   D(14,16,19,21)         -1.2945         calculate D2E/DX2 analytically  !
 ! D50   D(14,16,19,24)       -179.0236         calculate D2E/DX2 analytically  !
 ! D51   D(20,16,19,21)        179.0049         calculate D2E/DX2 analytically  !
 ! D52   D(20,16,19,24)          1.2759         calculate D2E/DX2 analytically  !
 ! D53   D(15,17,21,19)         -1.408          calculate D2E/DX2 analytically  !
 ! D54   D(15,17,21,23)       -178.6049         calculate D2E/DX2 analytically  !
 ! D55   D(22,17,21,19)        178.8516         calculate D2E/DX2 analytically  !
 ! D56   D(22,17,21,23)          1.6547         calculate D2E/DX2 analytically  !
 ! D57   D(16,19,21,17)          2.161          calculate D2E/DX2 analytically  !
 ! D58   D(16,19,21,23)        179.2847         calculate D2E/DX2 analytically  !
 ! D59   D(24,19,21,17)        179.8547         calculate D2E/DX2 analytically  !
 ! D60   D(24,19,21,23)         -3.0215         calculate D2E/DX2 analytically  !
 ! D61   D(16,19,24,25)       -106.0926         calculate D2E/DX2 analytically  !
 ! D62   D(21,19,24,25)         76.1991         calculate D2E/DX2 analytically  !
 ! D63   D(17,21,23,29)       -113.0323         calculate D2E/DX2 analytically  !
 ! D64   D(19,21,23,29)         69.8396         calculate D2E/DX2 analytically  !
 ! D65   D(21,23,29,30)         62.9076         calculate D2E/DX2 analytically  !
 ! D66   D(21,23,29,31)       -178.7664         calculate D2E/DX2 analytically  !
 ! D67   D(21,23,29,32)        -59.1789         calculate D2E/DX2 analytically  !
 ! D68   D(19,24,25,26)       -179.3604         calculate D2E/DX2 analytically  !
 ! D69   D(19,24,25,27)        -59.9449         calculate D2E/DX2 analytically  !
 ! D70   D(19,24,25,28)         62.1103         calculate D2E/DX2 analytically  !
 --------------------------------------------------------------------------------
 Trust Radius=3.00D-01 FncErr=1.00D-07 GrdErr=1.00D-06
 Number of steps in this run=    169 maximum allowed number of steps=    192.
 GradGradGradGradGradGradGradGradGradGradGradGradGradGradGradGradGradGrad

                          Input orientation:                          
 ---------------------------------------------------------------------
 Center     Atomic      Atomic             Coordinates (Angstroms)
 Number     Number       Type             X           Y           Z
 ---------------------------------------------------------------------
      1          6           0        3.014738   -0.917104    0.061029
      2          6           0        2.631522    0.439138   -0.061188
      3          6           0        3.613739    1.434198   -0.164863
      4          6           0        4.932265    1.030535   -0.142363
      5          6           0        5.326541   -0.303733   -0.023327
      6          6           0        4.356872   -1.294449    0.080246
      7          6           0        0.591555   -0.427375    0.043942
      8          1           0        3.345457    2.478052   -0.258998
      9          1           0        6.381534   -0.545894   -0.013125
     10          1           0        4.648422   -2.333176    0.173454
     11         16           0        1.579104   -1.911067    0.169455
     12          7           0        1.273339    0.670293   -0.067008
     13          9           0        5.903141    1.973199   -0.240256
     14          6           0       -0.874260   -0.485272    0.066815
     15          6           0       -1.571311   -1.688519    0.235462
     16          6           0       -1.603846    0.705137   -0.075402
     17          6           0       -2.960731   -1.702730    0.238036
     18          1           0       -1.035388   -2.622447    0.359575
     19          6           0       -2.991229    0.696604   -0.057370
     20          1           0       -1.082931    1.646123   -0.196253
     21          6           0       -3.684221   -0.522183    0.078020
     22          1           0       -3.509204   -2.629138    0.359761
     23          8           0       -5.053721   -0.569730    0.114546
     24          8           0       -3.673110    1.880054   -0.219900
     25          6           0       -4.270906    2.401343    0.977189
     26          1           0       -4.776760    3.321600    0.687342
     27          1           0       -4.993649    1.696007    1.395726
     28          1           0       -3.499999    2.627518    1.720954
     29          6           0       -5.720818   -0.265506   -1.122458
     30          1           0       -5.456680   -1.005188   -1.885096
     31          1           0       -6.787489   -0.327035   -0.910792
     32          1           0       -5.465428    0.736694   -1.472247
 ---------------------------------------------------------------------
                    Distance matrix (angstroms):
                    1          2          3          4          5
     1  C    0.000000
     2  C    1.414632   0.000000
     3  C    2.436894   1.402014   0.000000
     4  C    2.740725   2.376922   1.379116   0.000000
     5  C    2.393277   2.795786   2.444203   1.396386   0.000000
     6  C    1.394303   2.449931   2.838633   2.405448   1.390145
     7  C    2.472234   2.218865   3.555650   4.582791   4.737078
     8  H    3.426204   2.169332   1.081882   2.151016   3.423239
     9  H    3.388010   3.877523   3.406535   2.145277   1.082477
    10  H    2.164907   3.436374   3.921496   3.390407   2.148769
    11  S    1.749504   2.585390   3.929670   4.471459   4.082153
    12  N    2.359808   1.377726   2.463858   3.677389   4.168823
    13  F    4.097255   3.617858   2.353204   1.356760   2.358802
    14  C    3.912904   3.627868   4.886735   6.004761   6.204113
    15  C    4.653746   4.720035   6.066001   7.059214   7.040239
    16  C    4.897101   4.243737   5.269035   6.544548   7.003627
    17  C    6.029492   5.995868   7.295636   8.361509   8.408590
    18  H    4.404639   4.795474   6.192397   7.014920   6.782123
    19  C    6.220105   5.628644   6.646894   7.930983   8.377776
    20  H    4.840167   3.907968   4.701554   6.046853   6.701729
    21  C    6.710611   6.390002   7.559540   8.758044   9.013979
    22  H    6.751453   6.877502   8.217192   9.214322   9.144652
    23  O    8.076111   7.753171   8.900486  10.116658  10.384585
    24  O    7.254676   6.469143   7.300684   8.647553   9.262898
    25  C    8.058042   7.250654   8.025415   9.371812  10.021450
    26  H    8.891924   7.984455   8.642281  10.010123  10.757545
    27  H    8.529011   7.864194   8.751635  10.066397  10.607497
    28  H    7.600098   6.749858   7.455574   8.782106   9.462693
    29  C    8.839409   8.448929   9.536243  10.776293  11.101968
    30  H    8.692530   8.416159   9.548943  10.729001  10.965221
    31  H    9.867942   9.488236  10.575627  11.823118  12.146516
    32  H    8.774919   8.224368   9.199296  10.486513  10.938394
                    6          7          8          9         10
     6  C    0.000000
     7  C    3.864033   0.000000
     8  H    3.920435   4.014630   0.000000
     9  H    2.160627   5.791473   4.292140   0.000000
    10  H    1.082886   4.484085   5.003264   2.496571   0.000000
    11  S    2.846783   1.786714   4.750573   4.996035   3.098210
    12  N    3.659245   1.296925   2.756542   5.251254   4.524360
    13  F    3.629214   5.835792   2.607101   2.574156   4.504480
    14  C    5.293363   1.467136   5.166571   7.256488   5.824615
    15  C    5.943293   2.511006   6.463700   8.038354   6.253360
    16  C    6.289096   2.473179   5.260469   8.083022   6.955870
    17  C    7.330682   3.779278   7.582479   9.416967   7.635499
    18  H    5.560402   2.750438   6.752002   7.711142   5.694209
    19  C    7.614317   3.756319   6.585423   9.454864   8.221746
    20  H    6.189901   2.676003   4.506291   7.781819   6.987125
    21  C    8.078092   4.276963   7.650579  10.066196   8.527704
    22  H    7.983400   4.665161   8.570451  10.114625   8.165119
    23  O    9.438520   5.647512   8.942858  11.435993   9.861277
    24  O    8.639917   4.856049   7.044105  10.345233   9.335627
    25  C    9.428782   5.702291   7.716413  11.096910  10.129959
    26  H   10.251815   6.579330   8.220556  11.830287  11.003392
    27  H    9.904825   6.126220   8.537587  11.679288  10.521302
    28  H    8.933318   5.374528   7.127610  10.522465   9.664368
    29  C   10.201228   6.421273   9.511573  12.156322  10.652501
    30  H   10.012594   6.374653   9.604935  11.994104  10.397801
    31  H   11.230086   7.441228  10.534227  13.201397  11.661057
    32  H   10.149549   6.351451   9.062891  12.005190  10.696840
                   11         12         13         14         15
    11  S    0.000000
    12  N    2.610139   0.000000
    13  F    5.826893   4.812759   0.000000
    14  C    2.839440   2.442421   7.216061   0.000000
    15  C    3.158955   3.707764   8.336781   1.400759   0.000000
    16  C    4.127426   2.877408   7.615117   1.403423   2.413977
    17  C    4.545130   4.863295   9.607780   2.421752   1.389495
    18  H    2.716206   4.044049   8.344036   2.163143   1.083900
    19  C    5.266815   4.264660   8.987378   2.427717   2.791188
    20  H    4.458001   2.553616   6.993863   2.157682   3.397754
    21  C    5.444258   5.101023   9.911899   2.810226   2.418577
    22  H    5.142249   5.825899  10.494464   3.409532   2.157694
    23  O    6.767316   6.449985  11.253675   4.180587   3.659712
    24  O    6.489218   5.094532   9.576726   3.675668   4.166489
    25  C    7.312450   5.901316  10.255570   4.549564   4.956303
    26  H    8.249001   6.648471  10.804578   5.486970   5.964930
    27  H    7.597092   6.516657  11.022400   4.846994   4.951124
    28  H    6.985928   5.460064   9.627747   4.395468   4.955270
    29  C    7.593798   7.134979  11.870405   4.995177   4.592093
    30  H    7.385395   7.169786  11.858407   5.007878   4.478817
    31  H    8.583471   8.166002  12.914828   5.995584   5.511447
    32  H    7.702678   6.884046  11.501787   4.994070   4.895107
                   16         17         18         19         20
    16  C    0.000000
    17  C    2.781583   0.000000
    18  H    3.403699   2.137194   0.000000
    19  C    1.387526   2.417643   3.874952   0.000000
    20  H    1.082318   3.863878   4.304869   2.135995   0.000000
    21  C    2.420292   1.393820   3.392152   1.408549   3.397571
    22  H    3.864860   1.083453   2.473825   3.391586   4.947101
    23  O    3.682798   2.383180   4.518925   2.426320   4.557826
    24  O    2.383939   3.681512   5.250322   1.375475   2.600829
    25  C    3.331407   4.371078   6.007370   2.369392   3.480016
    26  H    4.182707   5.361318   7.031144   3.260877   4.151185
    27  H    3.825808   4.126065   5.948990   2.668329   4.222630
    28  H    3.243122   4.608785   5.957331   2.673895   3.237443
    29  C    4.357514   3.396268   5.450215   3.083946   5.101194
    30  H    4.587432   3.350226   5.215544   3.509292   5.386216
    31  H    5.351020   4.225686   6.322137   4.023401   6.078314
    32  H    4.106579   3.892218   5.853602   2.850464   4.654192
                   21         22         23         24         25
    21  C    0.000000
    22  H    2.132901   0.000000
    23  O    1.370812   2.585889   0.000000
    24  O    2.420666   4.549251   2.831851   0.000000
    25  C    3.114435   5.125148   3.191274   1.436010   0.000000
    26  H    4.042225   6.093053   3.943000   2.029578   1.089391
    27  H    2.893323   4.688676   2.603574   2.094742   1.093174
    28  H    3.557216   5.430043   3.900896   2.087004   1.094824
    29  C    2.377973   3.560192   1.437967   3.100185   3.690914
    30  H    2.688630   3.386629   2.085801   3.778706   4.604692
    31  H    3.262837   4.202515   2.028835   3.879166   4.164338
    32  H    2.675967   4.302545   2.096225   2.467397   3.193380
                   26         27         28         29         30
    26  H    0.000000
    27  H    1.786449   0.000000
    28  H    1.783318   1.790105   0.000000
    29  C    4.127221   3.273768   4.624567   0.000000
    30  H    5.079451   4.274885   5.479849   1.094767   0.000000
    31  H    4.462018   3.553954   5.144226   1.089209   1.783315
    32  H    3.437998   3.060739   4.199364   1.091779   1.790160
                   31         32
    31  H    0.000000
    32  H    1.787343   0.000000
 Stoichiometry    C15H12FNO2S
 Framework group  C1[X(C15H12FNO2S)]
 Deg. of freedom    90
 Full point group                 C1      NOp   1
 Largest Abelian subgroup         C1      NOp   1
 Largest concise Abelian subgroup C1      NOp   1
                         Standard orientation:                         
 ---------------------------------------------------------------------
 Center     Atomic      Atomic             Coordinates (Angstroms)
 Number     Number       Type             X           Y           Z
 ---------------------------------------------------------------------
      1          6           0       -3.014738   -0.917104   -0.061029
      2          6           0       -2.631522    0.439138    0.061188
      3          6           0       -3.613739    1.434198    0.164863
      4          6           0       -4.932265    1.030535    0.142363
      5          6           0       -5.326541   -0.303733    0.023327
      6          6           0       -4.356872   -1.294449   -0.080246
      7          6           0       -0.591555   -0.427375   -0.043942
      8          1           0       -3.345457    2.478052    0.258998
      9          1           0       -6.381534   -0.545894    0.013125
     10          1           0       -4.648422   -2.333176   -0.173454
     11         16           0       -1.579104   -1.911067   -0.169455
     12          7           0       -1.273339    0.670293    0.067008
     13          9           0       -5.903141    1.973199    0.240256
     14          6           0        0.874260   -0.485272   -0.066815
     15          6           0        1.571311   -1.688519   -0.235462
     16          6           0        1.603846    0.705137    0.075402
     17          6           0        2.960731   -1.702730   -0.238036
     18          1           0        1.035388   -2.622447   -0.359575
     19          6           0        2.991229    0.696604    0.057370
     20          1           0        1.082931    1.646123    0.196253
     21          6           0        3.684221   -0.522183   -0.078020
     22          1           0        3.509204   -2.629138   -0.359761
     23          8           0        5.053721   -0.569730   -0.114546
     24          8           0        3.673110    1.880054    0.219900
     25          6           0        4.270906    2.401343   -0.977189
     26          1           0        4.776760    3.321600   -0.687342
     27          1           0        4.993649    1.696007   -1.395726
     28          1           0        3.499999    2.627518   -1.720954
     29          6           0        5.720818   -0.265506    1.122458
     30          1           0        5.456680   -1.005188    1.885096
     31          1           0        6.787489   -0.327035    0.910792
     32          1           0        5.465428    0.736694    1.472247
 ---------------------------------------------------------------------
 Rotational constants (GHZ):      0.8651388      0.1277320      0.1135134
 Standard basis: 6-311+G(d,p) (5D, 7F)
 There are   540 symmetry adapted cartesian basis functions of A   symmetry.
 There are   520 symmetry adapted basis functions of A   symmetry.
   520 basis functions,   830 primitive gaussians,   540 cartesian basis functions
    75 alpha electrons       75 beta electrons
       nuclear repulsion energy      1553.4080053786 Hartrees.
 NAtoms=   32 NActive=   32 NUniq=   32 SFac= 1.00D+00 NAtFMM=   60 NAOKFM=F Big=F
 Integral buffers will be    131072 words long.
 Raffenetti 2 integral format.
 Two-electron integral symmetry is turned on.
 One-electron integrals computed using PRISM.
 NBasis=   520 RedAO= T EigKep=  1.68D-06  NBF=   520
 NBsUse=   516 1.00D-06 EigRej=  9.77D-07 NBFU=   516
 ExpMin= 4.05D-02 ExpMax= 9.34D+04 ExpMxC= 3.17D+03 IAcc=2 IRadAn=         4 AccDes= 0.00D+00
 Harris functional with IExCor=  402 and IRadAn=       4 diagonalized for initial guess.
 HarFok:  IExCor=  402 AccDes= 0.00D+00 IRadAn=         4 IDoV= 1 UseB2=F ITyADJ=14
 ICtDFT=  3500011 ScaDFX=  1.000000  1.000000  1.000000  1.000000
 FoFCou: FMM=F IPFlag=           0 FMFlag=      100000 FMFlg1=           0
         NFxFlg=           0 DoJE=T BraDBF=F KetDBF=T FulRan=T
         wScrn=  0.000000 ICntrl=     500 IOpCl=  0 I1Cent=   200000004 NGrid=           0
         NMat0=    1 NMatS0=      1 NMatT0=    0 NMatD0=    1 NMtDS0=    0 NMtDT0=    0
 Petite list used in FoFCou.
 Requested convergence on RMS density matrix=1.00D-08 within 128 cycles.
 Requested convergence on MAX density matrix=1.00D-06.
 Requested convergence on             energy=1.00D-06.
 No special actions if energy rises.
 SCF Done:  E(RB3LYP) =  -1282.29663783     A.U. after   16 cycles
            NFock= 16  Conv=0.63D-08     -V/T= 2.0032
 DoSCS=F DFT=T ScalE2(SS,OS)=  1.000000  1.000000
 Range of M.O.s used for correlation:     1   516
 NBasis=   520 NAE=    75 NBE=    75 NFC=     0 NFV=     0
 NROrb=    516 NOA=    75 NOB=    75 NVA=   441 NVB=   441

 **** Warning!!: The largest alpha MO coefficient is  0.16558866D+03

 PrsmSu:  requested number of processors reduced to:   6 ShMem   1 Linda.
 Symmetrizing basis deriv contribution to polar:
 IMax=3 JMax=2 DiffMx= 0.00D+00
 G2DrvN: will do     4 centers at a time, making    9 passes.
 Calling FoFCou, ICntrl=  3107 FMM=F I1Cent=   0 AccDes= 0.00D+00.
 Calling FoFCou, ICntrl=  3107 FMM=F I1Cent=   0 AccDes= 0.00D+00.
 Calling FoFCou, ICntrl=  3107 FMM=F I1Cent=   0 AccDes= 0.00D+00.
 Calling FoFCou, ICntrl=  3107 FMM=F I1Cent=   0 AccDes= 0.00D+00.
 Calling FoFCou, ICntrl=  3107 FMM=F I1Cent=   0 AccDes= 0.00D+00.
 Calling FoFCou, ICntrl=  3107 FMM=F I1Cent=   0 AccDes= 0.00D+00.
 Calling FoFCou, ICntrl=  3107 FMM=F I1Cent=   0 AccDes= 0.00D+00.
 Calling FoFCou, ICntrl=  3107 FMM=F I1Cent=   0 AccDes= 0.00D+00.
 Calling FoFCou, ICntrl=  3107 FMM=F I1Cent=   0 AccDes= 0.00D+00.
 End of G2Drv F.D. properties file   721 does not exist.
 End of G2Drv F.D. properties file   722 does not exist.
 End of G2Drv F.D. properties file   788 does not exist.
          IDoAtm=11111111111111111111111111111111
          Differentiating once with respect to electric field.
                with respect to dipole field.
          Differentiating once with respect to nuclear coordinates.
          There are    99 degrees of freedom in the 1st order CPHF.  IDoFFX=6 NUNeed=     3.
     99 vectors produced by pass  0 Test12= 3.34D-14 1.01D-09 XBig12= 5.28D+02 1.75D+01.
 AX will form    21 AO Fock derivatives at one time.
     99 vectors produced by pass  1 Test12= 3.34D-14 1.01D-09 XBig12= 1.14D+02 1.60D+00.
     96 vectors produced by pass  2 Test12= 3.34D-14 1.01D-09 XBig12= 1.71D+00 2.22D-01.
     96 vectors produced by pass  3 Test12= 3.34D-14 1.01D-09 XBig12= 8.20D-03 9.77D-03.
     96 vectors produced by pass  4 Test12= 3.34D-14 1.01D-09 XBig12= 2.52D-05 5.33D-04.
     96 vectors produced by pass  5 Test12= 3.34D-14 1.01D-09 XBig12= 4.94D-08 1.58D-05.
     94 vectors produced by pass  6 Test12= 3.34D-14 1.01D-09 XBig12= 7.98D-11 6.28D-07.
     72 vectors produced by pass  7 Test12= 3.34D-14 1.01D-09 XBig12= 2.13D-12 9.43D-08.
     56 vectors produced by pass  8 Test12= 3.34D-14 1.01D-09 XBig12= 5.40D-14 2.19D-08.
     51 vectors produced by pass  9 Test12= 3.34D-14 1.01D-09 XBig12= 1.68D-14 8.57D-09.
     45 vectors produced by pass 10 Test12= 3.34D-14 1.01D-09 XBig12= 7.68D-15 5.50D-09.
     40 vectors produced by pass 11 Test12= 3.34D-14 1.01D-09 XBig12= 1.40D-14 6.19D-09.
     26 vectors produced by pass 12 Test12= 3.34D-14 1.01D-09 XBig12= 3.09D-15 3.05D-09.
     26 vectors produced by pass 13 Test12= 3.34D-14 1.01D-09 XBig12= 9.89D-15 5.38D-09.
     26 vectors produced by pass 14 Test12= 3.34D-14 1.01D-09 XBig12= 1.24D-14 7.24D-09.
     26 vectors produced by pass 15 Test12= 3.34D-14 1.01D-09 XBig12= 4.61D-15 3.85D-09.
     26 vectors produced by pass 16 Test12= 3.34D-14 1.01D-09 XBig12= 8.84D-15 5.16D-09.
     21 vectors produced by pass 17 Test12= 3.34D-14 1.01D-09 XBig12= 3.05D-15 3.14D-09.
     21 vectors produced by pass 18 Test12= 3.34D-14 1.01D-09 XBig12= 8.67D-15 5.31D-09.
     21 vectors produced by pass 19 Test12= 3.34D-14 1.01D-09 XBig12= 6.12D-15 4.63D-09.
     21 vectors produced by pass 20 Test12= 3.34D-14 1.01D-09 XBig12= 5.63D-15 4.03D-09.
     21 vectors produced by pass 21 Test12= 3.34D-14 1.01D-09 XBig12= 3.23D-15 3.37D-09.
     16 vectors produced by pass 22 Test12= 3.34D-14 1.01D-09 XBig12= 2.06D-15 2.70D-09.
     15 vectors produced by pass 23 Test12= 3.34D-14 1.01D-09 XBig12= 2.55D-15 3.38D-09.
     15 vectors produced by pass 24 Test12= 3.34D-14 1.01D-09 XBig12= 3.58D-15 2.92D-09.
     14 vectors produced by pass 25 Test12= 3.34D-14 1.01D-09 XBig12= 2.21D-15 2.64D-09.
      6 vectors produced by pass 26 Test12= 3.34D-14 1.01D-09 XBig12= 1.49D-15 1.89D-09.
      6 vectors produced by pass 27 Test12= 3.34D-14 1.01D-09 XBig12= 2.42D-15 2.33D-09.
      6 vectors produced by pass 28 Test12= 3.34D-14 1.01D-09 XBig12= 3.30D-15 3.14D-09.
      6 vectors produced by pass 29 Test12= 3.34D-14 1.01D-09 XBig12= 2.07D-15 2.37D-09.
      6 vectors produced by pass 30 Test12= 3.34D-14 1.01D-09 XBig12= 2.82D-15 2.58D-09.
      6 vectors produced by pass 31 Test12= 3.34D-14 1.01D-09 XBig12= 1.85D-15 2.62D-09.
      6 vectors produced by pass 32 Test12= 3.34D-14 1.01D-09 XBig12= 3.51D-15 3.11D-09.
      6 vectors produced by pass 33 Test12= 3.34D-14 1.01D-09 XBig12= 1.80D-15 2.10D-09.
      6 vectors produced by pass 34 Test12= 3.34D-14 1.01D-09 XBig12= 1.77D-15 2.10D-09.
      6 vectors produced by pass 35 Test12= 3.34D-14 1.01D-09 XBig12= 1.96D-15 2.17D-09.
      6 vectors produced by pass 36 Test12= 3.34D-14 1.01D-09 XBig12= 1.42D-15 1.81D-09.
      6 vectors produced by pass 37 Test12= 3.34D-14 1.01D-09 XBig12= 2.10D-15 2.18D-09.
      6 vectors produced by pass 38 Test12= 3.34D-14 1.01D-09 XBig12= 1.32D-15 2.50D-09.
      6 vectors produced by pass 39 Test12= 3.34D-14 1.01D-09 XBig12= 3.31D-15 2.81D-09.
      3 vectors produced by pass 40 Test12= 3.34D-14 1.01D-09 XBig12= 7.94D-16 1.40D-09.
      3 vectors produced by pass 41 Test12= 3.34D-14 1.01D-09 XBig12= 2.26D-15 2.48D-09.
      3 vectors produced by pass 42 Test12= 3.34D-14 1.01D-09 XBig12= 2.70D-15 3.17D-09.
      3 vectors produced by pass 43 Test12= 3.34D-14 1.01D-09 XBig12= 3.43D-15 2.75D-09.
      3 vectors produced by pass 44 Test12= 3.34D-14 1.01D-09 XBig12= 1.47D-15 1.81D-09.
      3 vectors produced by pass 45 Test12= 3.34D-14 1.01D-09 XBig12= 3.55D-15 2.99D-09.
      3 vectors produced by pass 46 Test12= 3.34D-14 1.01D-09 XBig12= 2.14D-15 2.60D-09.
      3 vectors produced by pass 47 Test12= 3.34D-14 1.01D-09 XBig12= 4.57D-15 3.26D-09.
      3 vectors produced by pass 48 Test12= 3.34D-14 1.01D-09 XBig12= 2.01D-15 2.21D-09.
      3 vectors produced by pass 49 Test12= 3.34D-14 1.01D-09 XBig12= 1.29D-15 1.72D-09.
      3 vectors produced by pass 50 Test12= 3.34D-14 1.01D-09 XBig12= 2.00D-15 2.31D-09.
      3 vectors produced by pass 51 Test12= 3.34D-14 1.01D-09 XBig12= 9.23D-16 1.45D-09.
      3 vectors produced by pass 52 Test12= 3.34D-14 1.01D-09 XBig12= 3.77D-15 2.71D-09.
      3 vectors produced by pass 53 Test12= 3.34D-14 1.01D-09 XBig12= 1.82D-15 2.03D-09.
      3 vectors produced by pass 54 Test12= 3.34D-14 1.01D-09 XBig12= 3.08D-15 2.48D-09.
      3 vectors produced by pass 55 Test12= 3.34D-14 1.01D-09 XBig12= 3.41D-15 3.07D-09.
      3 vectors produced by pass 56 Test12= 3.34D-14 1.01D-09 XBig12= 1.76D-15 1.89D-09.
      3 vectors produced by pass 57 Test12= 3.34D-14 1.01D-09 XBig12= 2.37D-15 2.71D-09.
      3 vectors produced by pass 58 Test12= 3.34D-14 1.01D-09 XBig12= 3.54D-15 3.43D-09.
      3 vectors produced by pass 59 Test12= 3.34D-14 1.01D-09 XBig12= 3.56D-15 3.32D-09.
      1 vectors produced by pass 60 Test12= 3.34D-14 1.01D-09 XBig12= 8.21D-16 1.28D-09.
 InvSVY:  IOpt=1 It=  1 EMax= 2.13D-14
 Solved reduced A of dimension  1380 with    99 vectors.
 Isotropic polarizability for W=    0.000000      232.79 Bohr**3.
 End of Minotr F.D. properties file   721 does not exist.
 End of Minotr F.D. properties file   722 does not exist.
 End of Minotr F.D. properties file   788 does not exist.

 **********************************************************************

            Population analysis using the SCF density.

 **********************************************************************

 Orbital symmetries:
       Occupied  (A) (A) (A) (A) (A) (A) (A) (A) (A) (A) (A) (A)
                 (A) (A) (A) (A) (A) (A) (A) (A) (A) (A) (A) (A)
                 (A) (A) (A) (A) (A) (A) (A) (A) (A) (A) (A) (A)
                 (A) (A) (A) (A) (A) (A) (A) (A) (A) (A) (A) (A)
                 (A) (A) (A) (A) (A) (A) (A) (A) (A) (A) (A) (A)
                 (A) (A) (A) (A) (A) (A) (A) (A) (A) (A) (A) (A)
                 (A) (A) (A)
       Virtual   (A) (A) (A) (A) (A) (A) (A) (A) (A) (A) (A) (A)
                 (A) (A) (A) (A) (A) (A) (A) (A) (A) (A) (A) (A)
                 (A) (A) (A) (A) (A) (A) (A) (A) (A) (A) (A) (A)
                 (A) (A) (A) (A) (A) (A) (A) (A) (A) (A) (A) (A)
                 (A) (A) (A) (A) (A) (A) (A) (A) (A) (A) (A) (A)
                 (A) (A) (A) (A) (A) (A) (A) (A) (A) (A) (A) (A)
                 (A) (A) (A) (A) (A) (A) (A) (A) (A) (A) (A) (A)
                 (A) (A) (A) (A) (A) (A) (A) (A) (A) (A) (A) (A)
                 (A) (A) (A) (A) (A) (A) (A) (A) (A) (A) (A) (A)
                 (A) (A) (A) (A) (A) (A) (A) (A) (A) (A) (A) (A)
                 (A) (A) (A) (A) (A) (A) (A) (A) (A) (A) (A) (A)
                 (A) (A) (A) (A) (A) (A) (A) (A) (A) (A) (A) (A)
                 (A) (A) (A) (A) (A) (A) (A) (A) (A) (A) (A) (A)
                 (A) (A) (A) (A) (A) (A) (A) (A) (A) (A) (A) (A)
                 (A) (A) (A) (A) (A) (A) (A) (A) (A) (A) (A) (A)
                 (A) (A) (A) (A) (A) (A) (A) (A) (A) (A) (A) (A)
                 (A) (A) (A) (A) (A) (A) (A) (A) (A) (A) (A) (A)
                 (A) (A) (A) (A) (A) (A) (A) (A) (A) (A) (A) (A)
                 (A) (A) (A) (A) (A) (A) (A) (A) (A) (A) (A) (A)
                 (A) (A) (A) (A) (A) (A) (A) (A) (A) (A) (A) (A)
                 (A) (A) (A) (A) (A) (A) (A) (A) (A) (A) (A) (A)
                 (A) (A) (A) (A) (A) (A) (A) (A) (A) (A) (A) (A)
                 (A) (A) (A) (A) (A) (A) (A) (A) (A) (A) (A) (A)
                 (A) (A) (A) (A) (A) (A) (A) (A) (A) (A) (A) (A)
                 (A) (A) (A) (A) (A) (A) (A) (A) (A) (A) (A) (A)
                 (A) (A) (A) (A) (A) (A) (A) (A) (A) (A) (A) (A)
                 (A) (A) (A) (A) (A) (A) (A) (A) (A) (A) (A) (A)
                 (A) (A) (A) (A) (A) (A) (A) (A) (A) (A) (A) (A)
                 (A) (A) (A) (A) (A) (A) (A) (A) (A) (A) (A) (A)
                 (A) (A) (A) (A) (A) (A) (A) (A) (A) (A) (A) (A)
                 (A) (A) (A) (A) (A) (A) (A) (A) (A) (A) (A) (A)
                 (A) (A) (A) (A) (A) (A) (A) (A) (A) (A) (A) (A)
                 (A) (A) (A) (A) (A) (A) (A) (A) (A) (A) (A) (A)
                 (A) (A) (A) (A) (A) (A) (A) (A) (A) (A) (A) (A)
                 (A) (A) (A) (A) (A) (A) (A) (A) (A) (A) (A) (A)
                 (A) (A) (A) (A) (A) (A) (A) (A) (A) (A) (A) (A)
                 (A) (A) (A) (A) (A) (A) (A) (A) (A)
 The electronic state is 1-A.
 Alpha  occ. eigenvalues --  -88.88965 -24.69238 -19.15533 -19.15175 -14.32577
 Alpha  occ. eigenvalues --  -10.26932 -10.26134 -10.24686 -10.24353 -10.22785
 Alpha  occ. eigenvalues --  -10.22672 -10.22584 -10.22311 -10.20806 -10.20451
 Alpha  occ. eigenvalues --  -10.19653 -10.19525 -10.19231 -10.19132 -10.18994
 Alpha  occ. eigenvalues --   -7.97602  -5.93899  -5.93557  -5.93141  -1.23093
 Alpha  occ. eigenvalues --   -1.07914  -1.05752  -0.98385  -0.88196  -0.86912
 Alpha  occ. eigenvalues --   -0.81674  -0.79108  -0.77256  -0.76362  -0.73964
 Alpha  occ. eigenvalues --   -0.71437  -0.69443  -0.65543  -0.63672  -0.61951
 Alpha  occ. eigenvalues --   -0.61338  -0.58276  -0.54965  -0.53365  -0.52707
 Alpha  occ. eigenvalues --   -0.51775  -0.50677  -0.49621  -0.48286  -0.47548
 Alpha  occ. eigenvalues --   -0.46924  -0.46570  -0.46035  -0.45502  -0.44946
 Alpha  occ. eigenvalues --   -0.44568  -0.44022  -0.43668  -0.42243  -0.40446
 Alpha  occ. eigenvalues --   -0.39172  -0.38905  -0.38366  -0.36698  -0.36482
 Alpha  occ. eigenvalues --   -0.36004  -0.34427  -0.31686  -0.31409  -0.29178
 Alpha  occ. eigenvalues --   -0.28516  -0.27747  -0.26338  -0.24889  -0.23272
 Alpha virt. eigenvalues --   -0.07629  -0.02952  -0.02741  -0.01325  -0.00961
 Alpha virt. eigenvalues --    0.00100   0.00923   0.01542   0.01720   0.02061
 Alpha virt. eigenvalues --    0.02550   0.02841   0.03262   0.03559   0.04312
 Alpha virt. eigenvalues --    0.04379   0.04664   0.05223   0.05541   0.05762
 Alpha virt. eigenvalues --    0.06289   0.06791   0.07278   0.07735   0.08308
 Alpha virt. eigenvalues --    0.08594   0.09083   0.09236   0.09926   0.10185
 Alpha virt. eigenvalues --    0.10642   0.10796   0.11328   0.11889   0.12292
 Alpha virt. eigenvalues --    0.12806   0.12999   0.13288   0.13558   0.14015
 Alpha virt. eigenvalues --    0.14110   0.14521   0.14749   0.15135   0.15370
 Alpha virt. eigenvalues --    0.15674   0.16009   0.16215   0.16739   0.16997
 Alpha virt. eigenvalues --    0.17321   0.17594   0.17789   0.18601   0.19017
 Alpha virt. eigenvalues --    0.19491   0.19993   0.20140   0.20507   0.20605
 Alpha virt. eigenvalues --    0.20755   0.20919   0.21389   0.21708   0.21996
 Alpha virt. eigenvalues --    0.22251   0.22364   0.22517   0.22872   0.23259
 Alpha virt. eigenvalues --    0.23456   0.24268   0.24515   0.24616   0.25116
 Alpha virt. eigenvalues --    0.25395   0.25809   0.26103   0.26660   0.27187
 Alpha virt. eigenvalues --    0.27533   0.28202   0.28332   0.28907   0.29609
 Alpha virt. eigenvalues --    0.30044   0.30345   0.30580   0.31123   0.31617
 Alpha virt. eigenvalues --    0.32278   0.32830   0.33389   0.33775   0.33975
 Alpha virt. eigenvalues --    0.34271   0.34957   0.35317   0.35685   0.36018
 Alpha virt. eigenvalues --    0.36548   0.36839   0.37370   0.37796   0.38301
 Alpha virt. eigenvalues --    0.38970   0.39272   0.40175   0.40569   0.41013
 Alpha virt. eigenvalues --    0.41935   0.42832   0.43789   0.44389   0.45602
 Alpha virt. eigenvalues --    0.45848   0.46140   0.48324   0.48626   0.49257
 Alpha virt. eigenvalues --    0.50521   0.51410   0.51998   0.52714   0.53062
 Alpha virt. eigenvalues --    0.53627   0.54282   0.54584   0.56115   0.56645
 Alpha virt. eigenvalues --    0.56855   0.57822   0.58149   0.59353   0.60125
 Alpha virt. eigenvalues --    0.60523   0.60903   0.61073   0.63158   0.63376
 Alpha virt. eigenvalues --    0.63541   0.64342   0.64686   0.65134   0.66155
 Alpha virt. eigenvalues --    0.66362   0.66775   0.67752   0.68111   0.69068
 Alpha virt. eigenvalues --    0.69584   0.70056   0.70393   0.71369   0.71457
 Alpha virt. eigenvalues --    0.71971   0.72339   0.73570   0.74101   0.74447
 Alpha virt. eigenvalues --    0.76573   0.76644   0.77295   0.78621   0.80140
 Alpha virt. eigenvalues --    0.80454   0.81294   0.82048   0.83302   0.83950
 Alpha virt. eigenvalues --    0.84691   0.86125   0.86718   0.87346   0.88153
 Alpha virt. eigenvalues --    0.89120   0.89173   0.89817   0.91235   0.91867
 Alpha virt. eigenvalues --    0.92830   0.93427   0.94755   0.95042   0.96057
 Alpha virt. eigenvalues --    0.97687   0.98281   0.98545   0.99559   1.00300
 Alpha virt. eigenvalues --    1.00672   1.00950   1.02104   1.03032   1.03202
 Alpha virt. eigenvalues --    1.03950   1.05391   1.05912   1.06691   1.07314
 Alpha virt. eigenvalues --    1.07983   1.08330   1.09128   1.10060   1.12148
 Alpha virt. eigenvalues --    1.12976   1.15027   1.15493   1.17519   1.18848
 Alpha virt. eigenvalues --    1.19144   1.21315   1.21621   1.26675   1.27217
 Alpha virt. eigenvalues --    1.27619   1.29740   1.31504   1.32046   1.33662
 Alpha virt. eigenvalues --    1.36602   1.37804   1.39361   1.41336   1.41765
 Alpha virt. eigenvalues --    1.43334   1.43870   1.44294   1.45446   1.47141
 Alpha virt. eigenvalues --    1.48871   1.50404   1.50902   1.51736   1.52116
 Alpha virt. eigenvalues --    1.52318   1.54075   1.54609   1.54814   1.55446
 Alpha virt. eigenvalues --    1.55650   1.57105   1.57889   1.59479   1.59743
 Alpha virt. eigenvalues --    1.59835   1.60904   1.63657   1.64454   1.64949
 Alpha virt. eigenvalues --    1.65112   1.66014   1.66734   1.68456   1.69108
 Alpha virt. eigenvalues --    1.69562   1.72184   1.73134   1.73423   1.74097
 Alpha virt. eigenvalues --    1.75142   1.76390   1.77255   1.77438   1.78537
 Alpha virt. eigenvalues --    1.80886   1.82158   1.84500   1.85061   1.87931
 Alpha virt. eigenvalues --    1.88774   1.89735   1.90793   1.91728   1.91773
 Alpha virt. eigenvalues --    1.92381   1.92537   1.93990   1.95728   1.97240
 Alpha virt. eigenvalues --    1.97967   1.98217   1.99155   2.00819   2.01861
 Alpha virt. eigenvalues --    2.01988   2.02981   2.03447   2.03979   2.04738
 Alpha virt. eigenvalues --    2.07488   2.10670   2.11665   2.13291   2.14196
 Alpha virt. eigenvalues --    2.14787   2.15681   2.18143   2.19525   2.20767
 Alpha virt. eigenvalues --    2.22096   2.23330   2.24585   2.27508   2.28801
 Alpha virt. eigenvalues --    2.29838   2.31982   2.35606   2.40640   2.41647
 Alpha virt. eigenvalues --    2.42796   2.43652   2.44231   2.44417   2.49328
 Alpha virt. eigenvalues --    2.50120   2.50775   2.51863   2.53037   2.54204
 Alpha virt. eigenvalues --    2.56418   2.56960   2.59087   2.60845   2.62655
 Alpha virt. eigenvalues --    2.63343   2.63976   2.66326   2.67614   2.68064
 Alpha virt. eigenvalues --    2.69548   2.70117   2.70898   2.71871   2.73438
 Alpha virt. eigenvalues --    2.74721   2.75787   2.75976   2.76853   2.77306
 Alpha virt. eigenvalues --    2.79360   2.80572   2.81089   2.82055   2.82966
 Alpha virt. eigenvalues --    2.84403   2.85901   2.86269   2.87066   2.88391
 Alpha virt. eigenvalues --    2.91409   2.96668   2.99399   3.00453   3.01686
 Alpha virt. eigenvalues --    3.05169   3.05742   3.06084   3.08353   3.08741
 Alpha virt. eigenvalues --    3.09175   3.10317   3.13086   3.16944   3.19928
 Alpha virt. eigenvalues --    3.20949   3.23851   3.25848   3.28491   3.30582
 Alpha virt. eigenvalues --    3.33188   3.36839   3.39234   3.41179   3.43183
 Alpha virt. eigenvalues --    3.45951   3.47973   3.54600   3.56530   3.60289
 Alpha virt. eigenvalues --    3.65464   3.68936   3.70404   3.77823   3.78366
 Alpha virt. eigenvalues --    3.78665   3.80366   3.82395   3.84621   3.85439
 Alpha virt. eigenvalues --    3.93267   3.93872   3.97953   3.99973   4.00574
 Alpha virt. eigenvalues --    4.05601   4.09248   4.12043   4.12445   4.15652
 Alpha virt. eigenvalues --    4.17108   4.25373   4.26411   4.53058   4.82413
 Alpha virt. eigenvalues --    4.84054   4.86808   5.12477   5.16010   5.20955
 Alpha virt. eigenvalues --    5.35713   5.36995   5.70011   5.80325   6.32194
 Alpha virt. eigenvalues --    6.44313   6.73697   8.00031  17.28671  17.54202
 Alpha virt. eigenvalues --   17.56988  23.53210  23.61200  23.85642  23.87576
 Alpha virt. eigenvalues --   23.89248  23.91035  23.91552  23.93031  23.95020
 Alpha virt. eigenvalues --   24.00735  24.02127  24.08404  24.08770  24.16231
 Alpha virt. eigenvalues --   24.16540  35.67579  49.92581  49.97276  66.79519
 Alpha virt. eigenvalues --  189.17265
          Condensed to atoms (all electrons):
               1          2          3          4          5          6
     1  C   15.589770  -3.051629  -2.658155  -1.169448   0.258789  -4.695399
     2  C   -3.051629  14.829440  -2.242120  -0.041861  -0.597740   0.152361
     3  C   -2.658155  -2.242120  12.780278  -0.034828  -1.617074   2.271076
     4  C   -1.169448  -0.041861  -0.034828   7.083659  -0.162581   0.436766
     5  C    0.258789  -0.597740  -1.617074  -0.162581   7.426604   0.127803
     6  C   -4.695399   0.152361   2.271076   0.436766   0.127803   9.481470
     7  C    1.107218  -1.333565  -2.276368  -0.346770  -0.012085  -2.063398
     8  H    0.012086   0.110248   0.330271  -0.063115  -0.007330  -0.021950
     9  H    0.082469   0.007390  -0.030012  -0.030136   0.416429  -0.096526
    10  H    0.062067  -0.063959  -0.010418  -0.004106   0.018359   0.316407
    11  S   -1.395305  -0.093924   0.751497   0.185580  -0.027296   0.887229
    12  N    0.372704  -0.415032  -0.491742   0.083923   0.046523  -0.055177
    13  F   -0.001841  -0.018009  -0.228615   0.490370  -0.209958  -0.017741
    14  C   -0.069448   0.640400   0.250334  -0.068690  -0.015713   0.102126
    15  C   -0.389410  -0.292601   0.086103  -0.039266   0.005650  -0.116340
    16  C    0.165775  -0.473236  -0.248349   0.041351  -0.004659   0.042104
    17  C   -0.230296   0.233450   0.038472  -0.004264  -0.001613   0.003386
    18  H    0.007042  -0.010343  -0.001691   0.000035   0.000348  -0.000386
    19  C    0.475893  -0.602480  -0.077915   0.020735   0.006495   0.017593
    20  H    0.001442  -0.015849  -0.009614  -0.000430   0.000120  -0.001456
    21  C    0.116573  -0.288260  -0.021416   0.001238  -0.000106   0.004095
    22  H   -0.000657  -0.000991  -0.000034  -0.000002   0.000001  -0.000067
    23  O   -0.000058   0.000737   0.000018  -0.000001   0.000001  -0.000020
    24  O   -0.000358  -0.001122  -0.000631  -0.000004  -0.000029   0.000055
    25  C    0.000669   0.003898   0.000211   0.000024  -0.000006  -0.000145
    26  H   -0.000001  -0.000020   0.000008   0.000000   0.000000   0.000000
    27  H    0.000105  -0.000168   0.000009   0.000000   0.000000   0.000002
    28  H   -0.000457   0.000696  -0.000136  -0.000004  -0.000001  -0.000023
    29  C    0.000755   0.000184   0.000103   0.000007  -0.000006   0.000025
    30  H   -0.000033   0.000027  -0.000006   0.000000   0.000000   0.000001
    31  H    0.000001   0.000002   0.000000   0.000000   0.000000   0.000000
    32  H    0.000027  -0.000084   0.000011   0.000000   0.000000  -0.000001
               7          8          9         10         11         12
     1  C    1.107218   0.012086   0.082469   0.062067  -1.395305   0.372704
     2  C   -1.333565   0.110248   0.007390  -0.063959  -0.093924  -0.415032
     3  C   -2.276368   0.330271  -0.030012  -0.010418   0.751497  -0.491742
     4  C   -0.346770  -0.063115  -0.030136  -0.004106   0.185580   0.083923
     5  C   -0.012085  -0.007330   0.416429   0.018359  -0.027296   0.046523
     6  C   -2.063398  -0.021950  -0.096526   0.316407   0.887229  -0.055177
     7  C   11.437264   0.020598   0.006318   0.010299  -1.283347   0.364698
     8  H    0.020598   0.504622  -0.000140   0.000038  -0.006091  -0.009737
     9  H    0.006318  -0.000140   0.512906  -0.006692   0.002106   0.000871
    10  H    0.010299   0.000038  -0.006692   0.526384   0.015415   0.001079
    11  S   -1.283347  -0.006091   0.002106   0.015415  17.874690   0.043922
    12  N    0.364698  -0.009737   0.000871   0.001079   0.043922   7.051521
    13  F    0.002019  -0.004824  -0.006024  -0.000339  -0.002472  -0.001520
    14  C   -0.643215  -0.000117  -0.000192  -0.000081  -0.047527  -0.489361
    15  C    0.808681  -0.000677  -0.000006   0.000489  -0.108453  -0.133529
    16  C   -0.183369  -0.000386   0.000070  -0.000183  -0.241428   0.381326
    17  C    0.061558  -0.000053  -0.000003  -0.000028  -0.149628  -0.043701
    18  H    0.016970   0.000000   0.000000   0.000003   0.038425  -0.001061
    19  C    0.208435   0.000070   0.000001   0.000026   0.054633   0.082943
    20  H    0.023456   0.000012   0.000000   0.000000   0.002428   0.008564
    21  C   -0.360059  -0.000057   0.000000   0.000018  -0.021279  -0.011851
    22  H   -0.006357   0.000000   0.000000   0.000000  -0.000850   0.000085
    23  O    0.000432   0.000000   0.000000   0.000000  -0.001273   0.000212
    24  O    0.007598   0.000000   0.000000   0.000000  -0.000274  -0.001392
    25  C   -0.005324   0.000004   0.000000   0.000000  -0.001715  -0.000261
    26  H    0.000292   0.000000   0.000000   0.000000   0.000004  -0.000004
    27  H    0.001775   0.000000   0.000000   0.000000   0.000095  -0.000058
    28  H   -0.005382   0.000000   0.000000   0.000000  -0.000224   0.000241
    29  C    0.001592   0.000000   0.000000   0.000000  -0.001121  -0.000480
    30  H    0.000411   0.000000   0.000000   0.000000   0.000004   0.000009
    31  H    0.000146   0.000000   0.000000   0.000000   0.000004   0.000001
    32  H   -0.000226   0.000000   0.000000   0.000000  -0.000049  -0.000025
              13         14         15         16         17         18
     1  C   -0.001841  -0.069448  -0.389410   0.165775  -0.230296   0.007042
     2  C   -0.018009   0.640400  -0.292601  -0.473236   0.233450  -0.010343
     3  C   -0.228615   0.250334   0.086103  -0.248349   0.038472  -0.001691
     4  C    0.490370  -0.068690  -0.039266   0.041351  -0.004264   0.000035
     5  C   -0.209958  -0.015713   0.005650  -0.004659  -0.001613   0.000348
     6  C   -0.017741   0.102126  -0.116340   0.042104   0.003386  -0.000386
     7  C    0.002019  -0.643215   0.808681  -0.183369   0.061558   0.016970
     8  H   -0.004824  -0.000117  -0.000677  -0.000386  -0.000053   0.000000
     9  H   -0.006024  -0.000192  -0.000006   0.000070  -0.000003   0.000000
    10  H   -0.000339  -0.000081   0.000489  -0.000183  -0.000028   0.000003
    11  S   -0.002472  -0.047527  -0.108453  -0.241428  -0.149628   0.038425
    12  N   -0.001520  -0.489361  -0.133529   0.381326  -0.043701  -0.001061
    13  F    9.177407  -0.000112   0.000055   0.000031   0.000002   0.000000
    14  C   -0.000112  10.019482   0.756398   1.967470  -0.493223   0.050167
    15  C    0.000055   0.756398   8.527765  -0.640282   1.752744   0.397190
    16  C    0.000031   1.967470  -0.640282  13.019390  -1.485518  -0.021431
    17  C    0.000002  -0.493223   1.752744  -1.485518  13.244453  -0.116085
    18  H    0.000000   0.050167   0.397190  -0.021431  -0.116085   0.535532
    19  C    0.000004  -4.363893  -1.935215   0.617744  -6.479162  -0.016347
    20  H    0.000000   0.050039   0.021576   0.420430  -0.008430  -0.000124
    21  C    0.000000  -2.377136  -2.055405  -6.997720  -0.281434  -0.004382
    22  H    0.000000   0.032402  -0.107894  -0.004909   0.440306  -0.006971
    23  O    0.000000  -0.020209  -0.112928   0.097537  -0.432417  -0.000978
    24  O    0.000000  -0.102892   0.001388  -0.374710   0.122956   0.000331
    25  C    0.000000  -0.039497   0.011244   0.131494  -0.013672  -0.000131
    26  H    0.000000  -0.001662   0.000602  -0.003360   0.000456   0.000000
    27  H    0.000000  -0.035776   0.003381  -0.130675   0.014236   0.000003
    28  H    0.000000   0.064524   0.005663   0.164857   0.005318  -0.000002
    29  C    0.000000  -0.062943   0.003085  -0.062209   0.114876  -0.000012
    30  H    0.000000   0.012479   0.021632  -0.015191   0.131713   0.000025
    31  H    0.000000  -0.000361   0.000319   0.002762   0.000896  -0.000001
    32  H    0.000000  -0.007059  -0.018073   0.038345  -0.125732  -0.000008
              19         20         21         22         23         24
     1  C    0.475893   0.001442   0.116573  -0.000657  -0.000058  -0.000358
     2  C   -0.602480  -0.015849  -0.288260  -0.000991   0.000737  -0.001122
     3  C   -0.077915  -0.009614  -0.021416  -0.000034   0.000018  -0.000631
     4  C    0.020735  -0.000430   0.001238  -0.000002  -0.000001  -0.000004
     5  C    0.006495   0.000120  -0.000106   0.000001   0.000001  -0.000029
     6  C    0.017593  -0.001456   0.004095  -0.000067  -0.000020   0.000055
     7  C    0.208435   0.023456  -0.360059  -0.006357   0.000432   0.007598
     8  H    0.000070   0.000012  -0.000057   0.000000   0.000000   0.000000
     9  H    0.000001   0.000000   0.000000   0.000000   0.000000   0.000000
    10  H    0.000026   0.000000   0.000018   0.000000   0.000000   0.000000
    11  S    0.054633   0.002428  -0.021279  -0.000850  -0.001273  -0.000274
    12  N    0.082943   0.008564  -0.011851   0.000085   0.000212  -0.001392
    13  F    0.000004   0.000000   0.000000   0.000000   0.000000   0.000000
    14  C   -4.363893   0.050039  -2.377136   0.032402  -0.020209  -0.102892
    15  C   -1.935215   0.021576  -2.055405  -0.107894  -0.112928   0.001388
    16  C    0.617744   0.420430  -6.997720  -0.004909   0.097537  -0.374710
    17  C   -6.479162  -0.008430  -0.281434   0.440306  -0.432417   0.122956
    18  H   -0.016347  -0.000124  -0.004382  -0.006971  -0.000978   0.000331
    19  C   20.707076  -0.116686  -2.316833  -0.012107  -0.030972   0.553231
    20  H   -0.116686   0.482415  -0.004384   0.000032  -0.000337  -0.004143
    21  C   -2.316833  -0.004384  20.345379   0.022276   0.580039  -0.119111
    22  H   -0.012107   0.000032   0.022276   0.522088  -0.007218  -0.000465
    23  O   -0.030972  -0.000337   0.580039  -0.007218   8.082037   0.038643
    24  O    0.553231  -0.004143  -0.119111  -0.000465   0.038643   8.087975
    25  C   -0.038292  -0.002070  -0.204615  -0.000642  -0.019805   0.152516
    26  H    0.039114  -0.000173  -0.001100  -0.000001  -0.000606  -0.060040
    27  H   -0.094496   0.000049   0.215505   0.000068  -0.010914  -0.043451
    28  H   -0.124157   0.000889  -0.113049  -0.000007   0.002556  -0.044370
    29  C   -0.162286  -0.000354   0.004484  -0.001591   0.156765  -0.034155
    30  H   -0.080365  -0.000009  -0.072305   0.000558  -0.049006   0.003974
    31  H    0.006729   0.000000   0.023314  -0.000168  -0.060653  -0.000267
    32  H    0.183224   0.000065  -0.089365   0.000057  -0.036217  -0.016864
              25         26         27         28         29         30
     1  C    0.000669  -0.000001   0.000105  -0.000457   0.000755  -0.000033
     2  C    0.003898  -0.000020  -0.000168   0.000696   0.000184   0.000027
     3  C    0.000211   0.000008   0.000009  -0.000136   0.000103  -0.000006
     4  C    0.000024   0.000000   0.000000  -0.000004   0.000007   0.000000
     5  C   -0.000006   0.000000   0.000000  -0.000001  -0.000006   0.000000
     6  C   -0.000145   0.000000   0.000002  -0.000023   0.000025   0.000001
     7  C   -0.005324   0.000292   0.001775  -0.005382   0.001592   0.000411
     8  H    0.000004   0.000000   0.000000   0.000000   0.000000   0.000000
     9  H    0.000000   0.000000   0.000000   0.000000   0.000000   0.000000
    10  H    0.000000   0.000000   0.000000   0.000000   0.000000   0.000000
    11  S   -0.001715   0.000004   0.000095  -0.000224  -0.001121   0.000004
    12  N   -0.000261  -0.000004  -0.000058   0.000241  -0.000480   0.000009
    13  F    0.000000   0.000000   0.000000   0.000000   0.000000   0.000000
    14  C   -0.039497  -0.001662  -0.035776   0.064524  -0.062943   0.012479
    15  C    0.011244   0.000602   0.003381   0.005663   0.003085   0.021632
    16  C    0.131494  -0.003360  -0.130675   0.164857  -0.062209  -0.015191
    17  C   -0.013672   0.000456   0.014236   0.005318   0.114876   0.131713
    18  H   -0.000131   0.000000   0.000003  -0.000002  -0.000012   0.000025
    19  C   -0.038292   0.039114  -0.094496  -0.124157  -0.162286  -0.080365
    20  H   -0.002070  -0.000173   0.000049   0.000889  -0.000354  -0.000009
    21  C   -0.204615  -0.001100   0.215505  -0.113049   0.004484  -0.072305
    22  H   -0.000642  -0.000001   0.000068  -0.000007  -0.001591   0.000558
    23  O   -0.019805  -0.000606  -0.010914   0.002556   0.156765  -0.049006
    24  O    0.152516  -0.060040  -0.043451  -0.044370  -0.034155   0.003974
    25  C    5.031799   0.396608   0.423784   0.412093   0.007241  -0.000391
    26  H    0.396608   0.535934  -0.028984  -0.028575  -0.001207   0.000001
    27  H    0.423784  -0.028984   0.556802  -0.047043   0.004662  -0.000228
    28  H    0.412093  -0.028575  -0.047043   0.566081  -0.001244   0.000009
    29  C    0.007241  -0.001207   0.004662  -0.001244   5.034762   0.412395
    30  H   -0.000391   0.000001  -0.000228   0.000009   0.412395   0.572307
    31  H   -0.001580  -0.000091  -0.000307   0.000007   0.397786  -0.029373
    32  H    0.002111  -0.000204   0.003180  -0.000261   0.420061  -0.047133
              31         32
     1  C    0.000001   0.000027
     2  C    0.000002  -0.000084
     3  C    0.000000   0.000011
     4  C    0.000000   0.000000
     5  C    0.000000   0.000000
     6  C    0.000000  -0.000001
     7  C    0.000146  -0.000226
     8  H    0.000000   0.000000
     9  H    0.000000   0.000000
    10  H    0.000000   0.000000
    11  S    0.000004  -0.000049
    12  N    0.000001  -0.000025
    13  F    0.000000   0.000000
    14  C   -0.000361  -0.007059
    15  C    0.000319  -0.018073
    16  C    0.002762   0.038345
    17  C    0.000896  -0.125732
    18  H   -0.000001  -0.000008
    19  C    0.006729   0.183224
    20  H    0.000000   0.000065
    21  C    0.023314  -0.089365
    22  H   -0.000168   0.000057
    23  O   -0.060653  -0.036217
    24  O   -0.000267  -0.016864
    25  C   -0.001580   0.002111
    26  H   -0.000091  -0.000204
    27  H   -0.000307   0.003180
    28  H    0.000007  -0.000261
    29  C    0.397786   0.420061
    30  H   -0.029373  -0.047133
    31  H    0.537813  -0.028332
    32  H   -0.028332   0.547580
 Mulliken charges:
               1
     1  C    1.409111
     2  C   -0.435840
     3  C   -0.559267
     4  C   -0.378183
     5  C    0.349076
     6  C   -0.773871
     7  C    0.439705
     8  H    0.136528
     9  H    0.141172
    10  H    0.135223
    11  S   -0.473780
    12  N    0.216309
    13  F   -0.178432
    14  C    0.893286
    15  C   -0.453887
    16  C   -0.203069
    17  C   -0.299563
    18  H    0.133881
    19  C   -0.522738
    20  H    0.152544
    21  C    0.026947
    22  H    0.133058
    23  O   -0.175365
    24  O   -0.164389
    25  C   -0.245551
    26  H    0.153008
    27  H    0.168445
    28  H    0.141998
    29  C   -0.231175
    30  H    0.138495
    31  H    0.151353
    32  H    0.174972
 Sum of Mulliken charges =   0.00000
 Mulliken charges with hydrogens summed into heavy atoms:
               1
     1  C    1.409111
     2  C   -0.435840
     3  C   -0.422738
     4  C   -0.378183
     5  C    0.490248
     6  C   -0.638648
     7  C    0.439705
    11  S   -0.473780
    12  N    0.216309
    13  F   -0.178432
    14  C    0.893286
    15  C   -0.320006
    16  C   -0.050525
    17  C   -0.166506
    19  C   -0.522738
    21  C    0.026947
    23  O   -0.175365
    24  O   -0.164389
    25  C    0.217900
    29  C    0.233645
 APT charges:
               1
     1  C   -0.065271
     2  C    0.225585
     3  C   -0.094223
     4  C    0.618999
     5  C   -0.176035
     6  C    0.099961
     7  C    0.728635
     8  H    0.085153
     9  H    0.067302
    10  H    0.053677
    11  S   -0.165901
    12  N   -0.615051
    13  F   -0.653576
    14  C   -0.144805
    15  C   -0.017809
    16  C   -0.068587
    17  C   -0.129331
    18  H    0.055879
    19  C    0.393297
    20  H    0.096032
    21  C    0.578540
    22  H    0.047181
    23  O   -1.011952
    24  O   -0.863653
    25  C    0.512910
    26  H   -0.014384
    27  H   -0.007031
    28  H   -0.026847
    29  C    0.535679
    30  H   -0.030170
    31  H   -0.021002
    32  H    0.006795
 Sum of APT charges =   0.00000
 APT charges with hydrogens summed into heavy atoms:
               1
     1  C   -0.065271
     2  C    0.225585
     3  C   -0.009070
     4  C    0.618999
     5  C   -0.108732
     6  C    0.153638
     7  C    0.728635
    11  S   -0.165901
    12  N   -0.615051
    13  F   -0.653576
    14  C   -0.144805
    15  C    0.038070
    16  C    0.027445
    17  C   -0.082150
    19  C    0.393297
    21  C    0.578540
    23  O   -1.011952
    24  O   -0.863653
    25  C    0.464647
    29  C    0.491302
 Electronic spatial extent (au):  <R**2>=           8791.3890
 Charge=              0.0000 electrons
 Dipole moment (field-independent basis, Debye):
    X=              2.3266    Y=             -1.8165    Z=             -0.2307  Tot=              2.9607
 Quadrupole moment (field-independent basis, Debye-Ang):
   XX=           -113.8043   YY=           -117.2451   ZZ=           -125.3045
   XY=             12.2340   XZ=              3.0775   YZ=             -3.0885
 Traceless Quadrupole moment (field-independent basis, Debye-Ang):
   XX=              4.9804   YY=              1.5396   ZZ=             -6.5199
   XY=             12.2340   XZ=              3.0775   YZ=             -3.0885
 Octapole moment (field-independent basis, Debye-Ang**2):
  XXX=            100.2001  YYY=             12.6473  ZZZ=              3.7440  XYY=             18.3718
  XXY=            -38.8013  XXZ=             17.2234  XZZ=             14.0988  YZZ=             11.2658
  YYZ=             -9.4935  XYZ=            -15.5110
 Hexadecapole moment (field-independent basis, Debye-Ang**3):
 XXXX=          -9377.2653 YYYY=          -1415.2249 ZZZZ=           -278.1832 XXXY=            474.2577
 XXXZ=            196.7795 YYYX=              4.0382 YYYZ=             -3.9737 ZZZX=             -0.8468
 ZZZY=             -3.2697 XXYY=          -1842.1387 XXZZ=          -1683.5626 YYZZ=           -302.9374
 XXYZ=            -71.4692 YYXZ=            -29.6292 ZZXY=            -16.7823
 N-N= 1.553408005379D+03 E-N=-6.118462989906D+03  KE= 1.278262587886D+03
 There are a total of      267598 grid points.
 ElSum from          density=      150.0001726265
 ElSum from atomic densities=      150.0012423313

 Hirshfeld populations at iteration   1 (CX, CA, CB, DipXYZ):
               1          2          3          4          5          6
     1  C    0.000001   3.016398   3.016398   0.017876  -0.032705  -0.003095
     2  C    0.000001   2.979741   2.979741   0.038466   0.041116   0.003914
     3  C    0.000000   3.026711   3.026711   0.039877   0.058894   0.005405
     4  C    0.000000   2.964399   2.964399  -0.104681   0.089115   0.009633
     5  C    0.000000   3.028548   3.028548  -0.061072  -0.014561  -0.000408
     6  C    0.000001   3.022220   3.022220  -0.023508  -0.067431  -0.005769
     7  C    0.000001   2.967765   2.967765   0.032591  -0.029717  -0.002596
     8  H    0.000002   0.467545   0.467545   0.042105   0.163554   0.014937
     9  H    0.000002   0.470363   0.470363  -0.163032  -0.046472  -0.002386
    10  H    0.000003   0.471162   0.471162  -0.052550  -0.158932  -0.014136
    11  S    0.000003   7.968200   7.968200  -0.010817   0.028336   0.002025
    12  N    0.000002   3.595897   3.595897  -0.078935  -0.087683  -0.005506
    13  F    0.000012   4.550886   4.550886   0.103892  -0.100855  -0.010407
    14  C    0.000000   3.006939   3.006939  -0.046689   0.014772   0.003455
    15  C    0.000000   3.023593   3.023593  -0.019055  -0.046551  -0.008117
    16  C    0.000000   3.020353   3.020353  -0.036833   0.038645   0.011089
    17  C    0.000000   3.026108   3.026108   0.025086  -0.054412  -0.014400
    18  H    0.000003   0.477314   0.477314  -0.049807  -0.141990  -0.019634
    19  C    0.000000   2.968123   2.968123   0.081543   0.118182   0.012269
    20  H    0.000001   0.471711   0.471711  -0.059710   0.138426   0.018410
    21  C    0.000000   2.965531   2.965531   0.141864   0.005938   0.004239
    22  H    0.000002   0.472124   0.472124   0.073938  -0.146218  -0.019638
    23  O    0.000000   4.078615   4.078615  -0.071190   0.053346   0.137644
    24  O    0.000000   4.078649   4.078649   0.008472  -0.075522  -0.142076
    25  C    0.000000   3.006073   3.006073  -0.021222  -0.012901   0.049380
    26  H    0.000001   0.474366   0.474366   0.075229   0.134807   0.034729
    27  H    0.000000   0.480406   0.480406   0.099069  -0.066368  -0.070682
    28  H    0.000001   0.479390   0.479390  -0.094020   0.040456  -0.105222
    29  C    0.000000   3.006259   3.006259  -0.018749  -0.012403  -0.049216
    30  H    0.000001   0.479723   0.479723  -0.022989  -0.095080   0.108905
    31  H    0.000001   0.474418   0.474418   0.156601  -0.006856  -0.022931
    32  H    0.000000   0.480555   0.480555  -0.005819   0.119771   0.065698
       Tot   0.000038  75.000086  75.000086  -0.004070  -0.151297  -0.014487

 Dip from Atomic Chgs              0.920883  -0.563565  -0.075978
         Total Dipole              0.916813  -0.714862  -0.090465

 Hirshfeld charges, spin densities, dipoles, and CM5 charges using IRadAn=      4:
              Q-H        S-H        Dx         Dy         Dz        Q-CM5   
     1  C   -0.032797   0.000000   0.017876  -0.032705  -0.003095  -0.043641
     2  C    0.040518   0.000000   0.038466   0.041116   0.003914   0.103389
     3  C   -0.053422   0.000000   0.039877   0.058894   0.005405  -0.099322
     4  C    0.071201   0.000000  -0.104681   0.089115   0.009633   0.046287
     5  C   -0.057096   0.000000  -0.061072  -0.014561  -0.000408  -0.110881
     6  C   -0.044441   0.000000  -0.023508  -0.067431  -0.005769  -0.097185
     7  C    0.064469   0.000000   0.032591  -0.029717  -0.002596   0.133925
     8  H    0.064910   0.000000   0.042105   0.163554   0.014937   0.122173
     9  H    0.059274   0.000000  -0.163032  -0.046472  -0.002386   0.114058
    10  H    0.057676   0.000000  -0.052550  -0.158932  -0.014136   0.112664
    11  S    0.063600   0.000000  -0.010817   0.028336   0.002025   0.094759
    12  N   -0.191794   0.000000  -0.078935  -0.087683  -0.005506  -0.373849
    13  F   -0.101771   0.000000   0.103892  -0.100855  -0.010407  -0.078384
    14  C   -0.013878   0.000000  -0.046689   0.014772   0.003455  -0.014937
    15  C   -0.047187   0.000000  -0.019055  -0.046551  -0.008117  -0.098549
    16  C   -0.040706   0.000000  -0.036833   0.038645   0.011089  -0.086168
    17  C   -0.052216   0.000000   0.025086  -0.054412  -0.014400  -0.102574
    18  H    0.045372   0.000000  -0.049807  -0.141990  -0.019634   0.104284
    19  C    0.063753   0.000000   0.081543   0.118182   0.012269   0.083164
    20  H    0.056579   0.000000  -0.059710   0.138426   0.018410   0.120733
    21  C    0.068937   0.000000   0.141864   0.005938   0.004239   0.088600
    22  H    0.055753   0.000000   0.073938  -0.146218  -0.019638   0.114836
    23  O   -0.157230   0.000000  -0.071190   0.053346   0.137644  -0.245178
    24  O   -0.157298   0.000000   0.008472  -0.075522  -0.142076  -0.246216
    25  C   -0.012145   0.000000  -0.021222  -0.012901   0.049380  -0.133877
    26  H    0.051269   0.000000   0.075229   0.134807   0.034729   0.111379
    27  H    0.039188   0.000000   0.099069  -0.066368  -0.070682   0.101361
    28  H    0.041220   0.000000  -0.094020   0.040456  -0.105222   0.100152
    29  C   -0.012519   0.000000  -0.018749  -0.012403  -0.049216  -0.134408
    30  H    0.040555   0.000000  -0.022989  -0.095080   0.108905   0.099484
    31  H    0.051164   0.000000   0.156601  -0.006856  -0.022931   0.111331
    32  H    0.038890   0.000000  -0.005819   0.119771   0.065698   0.102420
       Tot  -0.000173   0.000000  -0.004070  -0.151297  -0.014487  -0.000173
 Hirshfeld charges with hydrogens summed into heavy atoms:
              Q-H       Q-CM5   
     1  C   -0.032797  -0.043641
     2  C    0.040518   0.103389
     3  C    0.011488   0.022851
     4  C    0.071201   0.046287
     5  C    0.002177   0.003177
     6  C    0.013235   0.015479
     7  C    0.064469   0.133925
    11  S    0.063600   0.094759
    12  N   -0.191794  -0.373849
    13  F   -0.101771  -0.078384
    14  C   -0.013878  -0.014937
    15  C   -0.001814   0.005735
    16  C    0.015873   0.034565
    17  C    0.003537   0.012262
    19  C    0.063753   0.083164
    21  C    0.068937   0.088600
    23  O   -0.157230  -0.245178
    24  O   -0.157298  -0.246216
    25  C    0.119531   0.179014
    29  C    0.118090   0.178827
 
 EQQ= 0.000000000000E+00 EQD= 0.000000000000E+00 EDD= 0.257455819499E-02
 EQQ+QD+DD= 0.257455819499E-02
 
          MBS Condensed to atoms (all electrons):
               1          2          3          4          5          6
     1  C    4.886276   0.470358  -0.032401  -0.012176  -0.032098   0.496125
     2  C    0.470358   4.694007   0.486811  -0.028992  -0.010169  -0.026362
     3  C   -0.032401   0.486811   4.856686   0.509212  -0.034258  -0.007713
     4  C   -0.012176  -0.028992   0.509212   4.642164   0.488998  -0.028839
     5  C   -0.032098  -0.010169  -0.034258   0.488998   4.853555   0.509055
     6  C    0.496125  -0.026362  -0.007713  -0.028839   0.509055   4.804990
     7  C   -0.030828  -0.061965   0.001786  -0.000021  -0.000004   0.000621
     8  H    0.001354  -0.020959   0.385157  -0.022543   0.001250   0.000047
     9  H    0.001452   0.000078   0.001309  -0.025085   0.388327  -0.021935
    10  H   -0.024935   0.001340  -0.000013   0.001407  -0.024173   0.389933
    11  S    0.347916  -0.040894   0.000708   0.000040   0.000541  -0.017409
    12  N   -0.037384   0.403501  -0.026079   0.000530   0.000019   0.000650
    13  F    0.000004   0.000240  -0.020215   0.240616  -0.020028   0.000237
    14  C    0.000370   0.001773  -0.000008   0.000000   0.000000  -0.000002
    15  C    0.000018  -0.000018   0.000000   0.000000   0.000000   0.000000
[...]
 6,0.00000021,0.00000211,-0.00000042,-0.00000123,-0.00000285,-0.0000416
 4,-0.00002026,0.00004355,0.00000511,0.00000069,0.00000039,-0.00000102,
 0.00000015,0.00000087,-0.00000094,0.00000097,0.00000065,-0.00002996,0.
 00001852,-0.00000036,-0.00000970,0.00004082,-0.00001278,-0.00001181,-0
 .00000710,0.00000028,0.00003571,-0.00024964,0.00004786,0.00007268,0.00
 014393,-0.00006175,-0.00076466,0.00054816,-0.00029041,-0.00002808,0.00
 020123,0.00008267,0.00001279,0.00001478,-0.00001034,0.00131152,-0.0036
 5746,0.00054432,0.00015734,-0.00000349,-0.00000635,-0.00090993,0.00065
 181,0.00013131,-0.00002464,0.00005493,0.00007032,0.00032606,-0.0010022
 9,-0.00102095,-0.01010361,-0.00059406,0.01474280,-0.16120838,-0.110960
 58,0.05628946,0.01238503,0.00973260,-0.00636516,0.17227488,-0.00003161
 ,0.00000332,0.00000504,0.00001548,-0.00000336,-0.00000026,0.00000278,0
 .00000509,-0.00000287,0.00001500,0.00004213,-0.00000169,-0.00002165,-0
 .00002235,-0.00000005,0.00002753,-0.00000315,0.00000114,0.00013658,-0.
 00005658,-0.00001725,0.00000413,-0.00000008,-0.00000020,-0.00000159,-0
 .00000054,0.00000017,-0.00000033,0.00000245,0.00000040,-0.00000606,0.0
 0003343,-0.00000361,-0.00004700,-0.00001032,0.00000627,-0.00002827,-0.
 00002531,0.00000248,-0.00002527,0.00009388,-0.00003117,-0.00000610,-0.
 00003818,-0.00004517,0.00031641,-0.00053765,0.00022938,0.00007295,0.00
 017256,-0.00001677,-0.00001314,0.00000607,0.00000128,0.00061606,0.0033
 2898,-0.00017183,-0.00005157,-0.00003820,-0.00000818,0.00049834,-0.000
 01831,-0.00008688,-0.00004190,0.00004122,-0.00000139,-0.00050372,-0.00
 098354,-0.00050271,0.01268695,0.01043481,-0.01034033,-0.11511890,-0.16
 990945,0.06532724,-0.01789582,-0.01518267,0.00782941,0.12195679,0.1750
 4514,0.00000552,-0.00002902,-0.00000704,-0.00002385,-0.00000556,-0.000
 00091,0.00000798,-0.00000333,0.00000625,-0.00002231,-0.00002712,0.0000
 0037,0.00001113,0.00000504,0.00000188,-0.00000306,0.00000999,-0.000000
 14,-0.00001793,-0.00004177,0.00001282,-0.00000095,-0.00000032,-0.00000
 406,0.00000181,0.00000083,-0.00000065,-0.00000017,-0.00000160,-0.00000
 021,0.00003869,-0.00000121,-0.00000519,0.00005215,0.00000280,0.0000155
 1,0.00002684,0.00002542,-0.00000172,-0.00000662,0.00028215,0.00001526,
 -0.00005574,-0.00018024,-0.00001258,0.00079481,-0.00106372,0.00028029,
 -0.00023498,-0.00020870,-0.00021022,-0.00002390,-0.00001109,0.00002315
 ,-0.00274260,0.00443286,0.00006954,-0.00015772,-0.00001305,-0.00006937
 ,0.00261331,-0.00056363,0.00009400,0.00004114,-0.00008702,0.00004790,-
 0.00166641,0.00127516,0.00067267,0.02715422,0.00986248,-0.02411185,0.0
 5432913,0.05808891,-0.07890999,0.00545682,0.00665284,-0.00187606,-0.07
 155230,-0.06421190,0.09465248,0.00002310,-0.00001003,-0.00000645,-0.00
 001266,-0.00000372,0.00000617,0.00000037,-0.00000662,0.00000027,-0.000
 00971,-0.00003164,0.00000442,0.00001555,0.00001291,-0.00000178,-0.0000
 1373,0.00000680,0.00000055,-0.00007016,0.00000332,0.00002809,-0.000000
 52,-0.00000019,-0.00000425,0.00000118,0.00000062,-0.00000116,0.0000002
 1,-0.00000164,-0.00000146,0.00001978,-0.00001459,0.00000258,0.00004951
 ,0.00001253,0.00000478,0.00002067,0.00002172,-0.00000047,0.00009554,0.
 00022005,-0.00016730,-0.00019751,-0.00019566,0.00005729,0.00045519,-0.
 00120250,-0.00022521,0.00041792,-0.00012563,0.00005798,0.00000195,-0.0
 0001251,0.00001049,0.00310692,-0.00094875,0.00164637,-0.00011502,0.000
 00436,0.00018538,-0.00098391,0.00039130,-0.00060046,-0.00002095,0.0000
 2828,0.00000855,0.00045597,-0.00058537,-0.00024813,0.01296651,0.006924
 76,0.01630725,-0.19075412,-0.03689522,-0.12476673,-0.00927911,-0.00393
 378,-0.00789330,-0.01367446,-0.00227053,-0.01390640,0.19739559,-0.0000
 0072,0.00000464,0.00000354,0.00000912,0.00000431,-0.00000218,-0.000001
 44,0.00000777,0.00000222,0.00000817,0.00001612,-0.00000310,-0.00000396
 ,-0.00000405,0.00000170,0.00000388,-0.00000499,0.00000105,0.00000948,-
 0.00000092,-0.00001171,-0.00000248,0.00000074,-0.00000129,-0.00000034,
 -0.00000052,-0.00000072,0.00000023,0.00000015,-0.00000152,-0.00000235,
 -0.00001171,-0.00000637,-0.00001443,-0.00000774,0.00001538,-0.00001247
 ,-0.00001486,0.00000183,0.00005349,-0.00018954,0.00011717,0.00013894,0
 .00002342,-0.00004090,0.00038392,0.00038157,0.00021389,-0.00015407,-0.
 00002873,0.00009553,0.00000982,-0.00000173,-0.00001632,-0.00328829,0.0
 0229119,-0.00152195,-0.00001874,0.00003119,-0.00014407,-0.00044695,-0.
 00051567,0.00052307,0.00000583,-0.00003199,-0.00002215,0.00044691,-0.0
 0057481,-0.00038081,-0.00229419,-0.00468972,-0.01590522,-0.03583328,-0
 .06180839,-0.02791722,0.01945411,0.00767695,0.01787619,-0.01686837,-0.
 00241142,-0.01375062,0.03835241,0.05972409,0.00002123,-0.00001866,0.00
 000266,-0.00000290,0.00000194,-0.00001255,-0.00000232,-0.00001790,0.00
 000945,-0.00001545,-0.00006454,0.00000624,0.00002748,0.00002702,-0.000
 00267,-0.00002622,0.00001868,0.00000045,-0.00021757,-0.00010725,0.0000
 1776,0.00000559,0.00000034,-0.00000907,0.00000225,0.00000226,-0.000001
 50,-0.00000114,-0.00000271,-0.00000043,0.00002617,-0.00000309,-0.00000
 028,0.00009691,0.00010200,0.00003135,0.00004272,0.00004829,-0.00000311
 ,0.00019741,-0.00014257,-0.00009974,0.00030996,-0.00009420,-0.00003449
 ,0.00062086,-0.00047156,0.00019098,-0.00041380,0.00014570,0.00012004,0
 .00001182,0.00000015,-0.00001317,-0.00366927,0.00570124,-0.00007885,0.
 00009570,-0.00000682,-0.00019545,0.00061767,-0.00122011,0.00027427,0.0
 0003134,-0.00007592,0.00000265,-0.00011951,0.00043393,0.00032417,-0.00
 729310,-0.01575698,-0.03353936,-0.11974182,-0.03037343,-0.15157880,-0.
 00702054,-0.00107981,-0.00400198,0.00718474,0.00226387,0.01011462,0.12
 917247,0.04063184,0.17861241,0.00033386,-0.00006139,-0.00002880,-0.000
 19411,0.00003461,-0.00001106,-0.00001246,-0.00007354,0.00000370,-0.000
 12104,-0.00040426,0.00004096,0.00020921,0.00021022,-0.00002591,-0.0002
 6123,0.00005296,0.00000043,-0.00164479,0.00006633,-0.00018797,-0.00001
 503,-0.00000110,0.00000218,0.00001324,0.00000843,0.00000330,0.00000076
 ,-0.00001936,0.00000325,0.00012894,-0.00027325,0.00007824,0.00059952,0
 .00034616,0.00000321,0.00025901,0.00025253,-0.00002916,0.00176554,-0.0
 0023566,-0.00009414,-0.00108632,0.00052271,0.00129386,-0.00107332,0.00
 127295,0.00113415,0.00127015,-0.00376551,-0.00029133,-0.00003471,-0.00
 008104,0.00004590,0.00383938,-0.00031578,-0.00035383,0.00020829,-0.000
 00494,-0.00004272,-0.04141867,0.01002463,-0.03225454,-0.00010543,0.000
 29345,-0.00059067,-0.08848825,0.00301008,-0.02670392,-0.00248060,0.000
 18742,-0.00241706,-0.00031533,-0.00046861,-0.00010250,0.00011732,0.000
 25306,-0.00004090,0.00035288,-0.00036612,-0.00024606,0.00014290,-0.000
 00524,-0.00011217,0.57166329,-0.00027403,-0.00002211,0.00000589,0.0000
 6239,-0.00002629,-0.00002743,0.00004135,0.00006828,-0.00000036,0.00003
 716,0.00030415,-0.00003218,-0.00015085,-0.00017229,0.00002301,0.000210
 91,-0.00002889,-0.00000103,0.00119609,-0.00000686,0.00002335,0.0000029
 2,0.00000030,-0.00000104,-0.00000638,-0.00000542,-0.00000044,0.0000004
 6,0.00001179,-0.00000075,-0.00003984,0.00018436,-0.00002973,-0.0003389
 1,-0.00029017,0.00007230,-0.00016030,-0.00017058,0.00001779,-0.0016336
 6,0.00042137,-0.00006153,0.00099697,-0.00102050,-0.00042874,0.00139622
 ,-0.00064261,0.00081056,0.00139094,0.00180659,-0.00066055,0.00014457,0
 .00004088,0.00012686,-0.00737741,0.00222513,-0.00013654,-0.00019681,0.
 00000377,-0.00013671,0.00846344,-0.00617022,-0.00431876,0.00010028,-0.
 00006976,0.00029307,0.00611608,-0.05746778,0.03357699,0.00170874,-0.00
 117296,0.00149771,0.00004352,-0.00055282,-0.00057125,-0.00004330,-0.00
 020588,-0.00005888,-0.00016543,-0.00000913,-0.00044027,0.00015524,0.00
 020726,0.00018848,0.02228981,0.56626913,0.00047497,-0.00005785,-0.0000
 1317,-0.00017917,0.00002894,0.00001323,-0.00004116,-0.00011690,0.00000
 215,-0.00015365,-0.00058778,0.00005748,0.00029876,0.00030292,-0.000035
 27,-0.00036606,0.00008443,-0.00001132,-0.00208712,0.00027164,-0.000057
 02,-0.00001880,0.00000217,0.00001515,0.00001970,0.00001335,0.00000472,
 0.00000355,-0.00002866,0.00001204,0.00014810,-0.00037868,0.00006287,0.
 00078703,0.00038207,-0.00009190,0.00036698,0.00036172,-0.00004404,0.00
 190626,-0.00039711,-0.00001497,-0.00040972,-0.00118262,0.00038401,-0.0
 0106459,0.00214066,-0.00011827,0.00770152,-0.00113036,-0.00001742,0.00
 056771,-0.00011445,0.00008137,0.00702265,-0.00228400,0.00177036,0.0004
 9536,-0.00003137,0.00005083,-0.01791426,-0.00275688,0.00132450,-0.0003
 1572,0.00016676,0.00005909,-0.05199270,0.03079689,-0.17248587,-0.00392
 884,0.00041682,-0.00287437,-0.00052224,-0.00035857,0.00108233,0.000097
 54,0.00052447,0.00004853,0.00042008,-0.00049868,-0.00064991,0.00021400
 ,0.00017297,-0.00027589,-0.07405205,0.02010161,0.45873659,0.00001243,-
 0.00000315,-0.00000523,-0.00000410,-0.00000065,-0.00001160,-0.00000131
 ,-0.00000440,0.00000533,-0.00001020,-0.00002397,-0.00000014,0.00001107
 ,0.00000983,0.00000172,-0.00001113,0.00000474,-0.00000134,-0.00003705,
 0.00003428,-0.00001216,-0.00000122,-0.00000010,-0.00000078,0.00000106,
 0.00000065,0.00000022,0.00000022,-0.00000144,-0.00000002,0.00000258,-0
 .00000620,0.00000388,0.00001823,-0.00000607,0.00001130,0.00001688,0.00
 001568,-0.00000152,-0.00001349,0.00014990,-0.00007142,-0.00016725,-0.0
 0013417,0.00018433,0.00013140,-0.00022076,0.00009471,0.00063894,0.0006
 0865,0.00034827,0.00003532,-0.00000190,-0.00001638,-0.00054989,-0.0001
 0503,0.00069307,-0.00003283,-0.00000509,-0.00002535,0.00419684,-0.0024
 1912,-0.00207524,0.00002413,0.00000700,-0.00017120,0.00005044,-0.00943
 290,-0.02025278,-0.00026313,-0.00003084,-0.00021951,0.00008537,0.00002
 143,0.00007530,-0.00003681,-0.00003384,0.00001494,-0.00006201,0.000030
 84,-0.00002192,0.00001309,0.00000323,-0.00000737,-0.07062155,0.0475589
 9,0.04992531,0.06842274,-0.00001847,0.00000291,0.00000285,0.00000483,-
 0.00000026,-0.00000291,0.00000141,0.00000297,0.00000187,0.00000370,0.0
 0001529,-0.00000117,-0.00001031,-0.00000765,0.00000091,0.00000936,-0.0
 0000244,0.00000445,0.00005147,-0.00002643,-0.00000442,0.00000110,-0.00
 000077,-0.00000372,-0.00000079,-0.00000060,-0.00000153,-0.00000043,0.0
 0000110,-0.00000203,-0.00000685,0.00001474,-0.00000591,-0.00003138,0.0
 0000033,0.00001294,-0.00000946,-0.00000838,0.00000218,-0.00007541,-0.0
 0019263,0.00005296,0.00012450,0.00016360,-0.00012544,-0.00032411,0.000
 20764,0.00006444,-0.00095689,0.00001783,-0.00023011,-0.00002707,0.0000
 1039,0.00001183,0.00072302,-0.00083211,-0.00018181,0.00002277,-0.00000
 971,-0.00001277,-0.00071724,0.00095811,0.00058154,0.00004180,-0.000055
 42,0.00009669,-0.00214285,0.01061314,0.00789235,-0.00115833,0.00002001
 ,-0.00050530,0.00013366,0.00024679,0.00030861,0.00003578,0.00007907,0.
 00000830,0.00007244,-0.00002350,0.00013099,-0.00007012,-0.00002571,-0.
 00002322,0.04713225,-0.17701684,-0.11922667,-0.05157961,0.18166850,-0.
 00012126,-0.00000128,0.00000602,0.00002751,-0.00000464,-0.00000491,0.0
 0001571,0.00002579,-0.00000133,0.00001852,0.00011846,-0.00001178,-0.00
 006244,-0.00006818,0.00000885,0.00008440,-0.00001343,0.00000104,0.0004
 4765,-0.00004587,-0.00000788,0.00000421,0.00000021,-0.00000163,-0.0000
 0332,-0.00000257,-0.00000111,-0.00000134,0.00000550,-0.00000164,-0.000
 03345,0.00008878,-0.00001481,-0.00012898,-0.00007027,0.00001858,-0.000
 06572,-0.00006536,0.00000771,-0.00051493,0.00018819,-0.00005757,0.0000
 4821,0.00004624,-0.00009543,0.00043646,-0.00027137,0.00017322,-0.00096
 154,0.00052142,-0.00001408,-0.00005460,0.00001773,0.00001562,-0.001515
 66,-0.00013869,0.00027546,-0.00006563,-0.00000471,-0.00001954,0.007366
 90,-0.00047629,0.00024156,-0.00000646,0.00007516,-0.00019845,-0.007810
 03,-0.01255028,-0.03579894,0.00053465,0.00003446,0.00027616,0.00015721
 ,0.00003783,-0.00021321,-0.00004498,-0.00008617,0.00002568,-0.00009067
 ,0.00013141,0.00004302,-0.00001074,-0.00001700,0.00003089,0.04519785,-
 0.11632848,-0.15633453,-0.04349177,0.12826912,0.18519195,-0.00008885,0
 .00000515,-0.00000485,0.00001650,0.00000011,0.00000132,0.00001297,0.00
 002616,-0.00000147,0.00003199,0.00012036,-0.00001214,-0.00005636,-0.00
 006072,0.00000630,0.00006995,-0.00001736,0.00000116,0.00031362,-0.0000
 7281,-0.00002015,0.00000428,-0.00000006,-0.00000008,-0.00000407,-0.000
 00237,0.00000065,-0.00000048,0.00000578,-0.00000075,-0.00002553,0.0000
 6070,-0.00000095,-0.00010897,-0.00004135,0.00000734,-0.00007564,-0.000
 07424,0.00000764,-0.00021294,0.00012869,-0.00003048,-0.00006732,0.0000
 9094,0.00016318,0.00013728,-0.00008390,0.00015109,-0.00044696,-0.00036
 561,-0.00019042,-0.00006777,0.00001166,0.00001492,-0.00035907,0.000485
 67,-0.00006805,-0.00003167,-0.00000220,0.00000834,0.00163094,0.0010010
 8,-0.00288520,0.00000337,0.00001183,-0.00005731,-0.01957412,0.00062814
 ,-0.00401879,0.00018074,-0.00040339,-0.00031036,-0.00019853,0.00010930
 ,0.00039030,0.00000697,-0.00008017,-0.00001118,-0.00002378,0.00005887,
 -0.00009257,0.00004727,0.00000916,-0.00005079,-0.30263330,-0.01636631,
 0.05771449,-0.00546915,-0.00093896,0.00262619,0.33190644,0.00001159,0.
 00000321,0.00000204,0.00000303,0.00000097,-0.00000071,-0.00000344,-0.0
 0000322,-0.00000051,0.00000213,-0.00000736,0.00000113,0.00000469,0.000
 00551,-0.00000075,-0.00000688,0.00000102,-0.00000027,-0.00002443,0.000
 01227,0.00000012,0.00000007,0.00000012,0.00000039,0.00000014,0.0000003
 0,-0.00000017,0.00000019,-0.00000037,0.00000015,-0.00000421,-0.0000041
 5,0.00000119,0.00000327,0.00000039,-0.00000355,0.00000242,0.00000237,-
 0.00000024,0.00003189,0.00005410,-0.00001819,-0.00009858,-0.00006113,-
 0.00004174,0.00005092,0.00003671,-0.00000654,0.00023513,0.00015263,-0.
 00004615,0.00002567,-0.00000093,0.00000496,0.00054434,-0.00072109,0.00
 030719,0.00002595,-0.00000438,0.00000011,0.00069590,0.00009224,0.00141
 456,0.00001861,-0.00000743,-0.00000582,0.00945911,0.00092544,0.0003652
 6,-0.00064679,-0.00021833,-0.00079825,-0.00031394,0.00019240,0.0003692
 6,-0.00000728,-0.00005279,0.00000743,-0.00000502,0.00003725,-0.0001430
 0,0.00009246,-0.00002776,-0.00011136,-0.01962891,-0.05216571,0.0033172
 4,0.02229179,0.00235100,-0.00472306,0.01604656,0.04798285,-0.00003767,
 -0.00000650,-0.00000418,-0.00000461,-0.00000097,-0.00000801,0.00000798
 ,0.00000981,0.00000209,0.00000065,0.00003784,-0.00000369,-0.00002001,-
 0.00002182,0.00000215,0.00002607,-0.00000548,0.00000161,0.00013017,-0.
 00002565,-0.00002808,0.00000015,-0.00000060,-0.00000142,-0.00000095,-0
 .00000092,0.00000042,-0.00000058,0.00000180,-0.00000103,-0.00000131,0.
 00002625,0.00000172,-0.00004105,-0.00002502,0.00001847,-0.00001837,-0.
 00001984,0.00000221,-0.00014136,0.00009331,-0.00004457,-0.00007477,0.0
 0029100,0.00024628,0.00009942,-0.00024771,0.00021887,-0.00114492,-0.00
 023889,-0.00006067,-0.00010628,0.00000439,0.00000678,-0.00105281,0.000
 66436,-0.00006968,-0.00006819,-0.00000840,-0.00002430,-0.00177606,0.00
 154908,-0.00390504,0.00003466,0.00002939,-0.00016530,-0.03950579,-0.00
 015798,-0.00180049,0.00045153,-0.00028109,0.00011040,0.00000192,-0.000
 06163,0.00005642,0.00001096,-0.00001625,-0.00003417,-0.00003057,0.0000
 0049,-0.00001309,-0.00000030,0.00002059,0.00003130,0.07051718,0.003053
 32,-0.06166966,0.02036104,0.00279068,-0.00252177,-0.05594491,-0.006086
 02,0.07036759,0.00001314,-0.00001229,0.00001895,-0.00001881,-0.0000045
 6,-0.00000369,0.00000229,-0.00000432,0.00000008,-0.00001753,-0.0000264
 9,0.00000363,0.00001058,0.00000959,-0.00000289,-0.00001010,0.00000418,
 -0.00000057,-0.00004444,0.00001117,-0.00001239,-0.00000255,-0.00000057
 ,-0.00000064,0.00000141,0.00000037,-0.00000034,0.00000021,-0.00000141,
 -0.00000001,0.00002431,-0.00001600,-0.00000741,0.00002715,-0.00000752,
 0.00000908,0.00002259,0.00002065,-0.00000196,-0.00008067,-0.00007936,-
 0.00002833,0.00017378,0.00007170,-0.00003549,0.00007482,0.00004641,-0.
 00002248,-0.00093830,0.00012843,0.00016414,-0.00004254,-0.00000635,-0.
 00002284,-0.00114494,0.00080179,-0.00029212,0.00000163,-0.00002402,-0.
 00002903,0.00396722,0.00227955,0.00004759,0.00003510,-0.00013564,0.000
 02586,0.00048566,0.01721724,-0.01416955,-0.00043767,-0.00089436,-0.000
 07576,0.00050788,-0.00055619,-0.00072059,-0.00000376,0.00009559,0.0000
 0532,-0.00005540,-0.00000913,0.00024192,-0.00009734,0.00005859,0.00022
 966,-0.07039814,-0.06516282,0.02488205,0.00362035,0.00971020,-0.001981
 94,-0.00491781,-0.02880638,0.00832877,0.06924189,0.00001966,-0.0000082
 0,-0.00001184,-0.00001519,0.00000365,0.00000284,0.00000051,-0.00000617
 ,-0.00000067,-0.00001414,-0.00003784,0.00000340,0.00001879,0.00001667,
 -0.00000237,-0.00001972,0.00000621,0.00000348,-0.00012538,0.00000879,0
 .00000240,-0.00000090,0.00000067,0.00000270,0.00000147,0.00000074,0.00
 000037,-0.00000027,-0.00000183,0.00000132,0.00000769,-0.00002057,0.000
 00637,0.00006437,0.00003525,-0.00002006,0.00002647,0.00002634,-0.00000
 355,0.00009907,0.00004219,-0.00008143,-0.00011903,-0.00008109,-0.00001
 150,0.00014114,0.00016952,0.00014343,0.00041038,-0.00023327,-0.0001131
 5,0.00002965,-0.00000737,0.00002755,0.00072731,-0.00000575,0.00017516,
 0.00005548,-0.00000419,0.00008334,-0.00199288,0.00028557,0.00029928,-0
 .00006145,0.00006919,-0.00001269,0.00452962,-0.00112600,0.00820547,-0.
 00175571,-0.00126625,-0.00174789,-0.00021185,-0.00000566,-0.00001105,0
 .00000984,-0.00000036,-0.00002197,0.00007275,0.00002742,0.00001370,0.0
 0008175,-0.00001913,0.00000439,-0.06025291,-0.27432618,0.07006592,-0.0
 0672776,-0.01817098,0.00530736,-0.00029071,0.00142391,-0.00136753,0.06
 529196,0.29320470,-0.00003506,-0.00000049,-0.00000464,0.00001299,-0.00
 000570,0.00000032,0.00000318,0.00001071,-0.00000129,0.00001079,0.00004
 616,-0.00000397,-0.00002285,-0.00002334,0.00000209,0.00002876,-0.00000
 643,-0.00000033,0.00016653,-0.00003846,0.00003309,0.00000005,0.0000001
 5,0.00000202,-0.00000125,-0.00000093,0.00000065,-0.00000009,0.00000217
 ,-0.00000007,0.00000516,0.00002299,-0.00000174,-0.00006683,-0.00004098
 ,-0.00000922,-0.00002743,-0.00002819,0.00000269,-0.00016303,-0.0001316
 5,0.00001481,0.00024653,0.00018912,-0.00002446,0.00002846,-0.00038976,
 -0.00020932,-0.00140773,0.00008467,0.00015058,-0.00008965,0.00000833,-
 0.00001394,-0.00199963,0.00199628,-0.00008945,-0.00009320,-0.00000372,
 0.00004381,0.00531186,0.00022552,0.00067842,0.00009412,-0.00015886,-0.
 00004737,-0.00368290,0.03075468,-0.02366114,0.00197629,-0.00081342,0.0
 0059919,-0.00023218,-0.00056913,-0.00075240,-0.00006784,-0.00012878,0.
 00000177,-0.00010794,0.00014237,-0.00017674,0.00012752,0.00006618,0.00
 007815,0.01926055,0.06344371,-0.06901163,-0.00533369,-0.01990572,0.008
 98284,0.00260752,0.00619531,-0.00071116,-0.01654902,-0.08094278,0.0841
 2842\\-0.00000015,-0.00000050,0.00000051,0.00000010,-0.00000075,-0.000
 00044,0.00000017,-0.00000088,-0.00000126,0.00000016,-0.00000112,-0.000
 00105,-0.00000006,-0.00000115,-0.00000009,-0.00000035,-0.00000086,0.00
 000071,-0.00000008,-0.00000024,0.00000032,0.00000039,-0.00000087,-0.00
 000202,-0.00000011,-0.00000126,0.,-0.00000043,-0.00000078,0.00000145,-
 0.00000033,-0.00000023,0.00000135,0.00000010,-0.00000036,-0.00000054,0
 .00000033,-0.00000133,-0.00000182,-0.00000009,0.00000008,0.00000049,-0
 .00000028,0.00000035,0.00000140,0.00000006,0.00000011,-0.00000037,-0.0
 0000029,0.00000058,0.00000152,-0.00000047,0.00000035,0.00000206,0.0000
 0007,0.00000041,-0.00000026,0.00000026,-0.00000006,-0.00000109,-0.0000
 0009,0.00000060,0.00000069,-0.00000047,0.00000077,0.00000224,-0.000000
 14,0.00000087,0.00000082,0.00000030,0.00000037,-0.00000107,0.00000047,
 0.00000136,-0.00000143,0.00000062,0.00000124,-0.00000207,0.00000038,0.
 00000180,-0.00000086,0.00000057,0.00000178,-0.00000165,-0.00000015,0.0
 0000007,0.00000063,-0.00000033,-0.00000054,0.00000118,-0.00000014,0.00
 000041,0.00000077,0.,-0.00000023,-0.00000010\\\@


      SCIENCE SANS CONSCIENCE N'EST QUE RUINE DE L'AME.

                                                  -- RABELAIS
 Job cpu time:       0 days 11 hours 44 minutes 14.4 seconds.
 File lengths (MBytes):  RWF=   1535 Int=      0 D2E=      0 Chk=     21 Scr=      1
 Normal termination of Gaussian 09 at Mon Mar  7 14:17:43 2022.
