 Entering Gaussian System, Link 0=g09
 Initial command:
 /cm/shared/apps/gaussian/g09revD.01/g09/l1.exe "//home/sweav003/CHB/validation/G09-Traceless4_Smith.com.o9822902.tmp/Gau-232883.inp" -scrdir="//home/sweav003/CHB/validation/G09-Traceless4_Smith.com.o9822902.tmp/"
 Entering Link 1 = /cm/shared/apps/gaussian/g09revD.01/g09/l1.exe PID=    232884.
  
 Copyright (c) 1988,1990,1992,1993,1995,1998,2003,2009,2013,
            Gaussian, Inc.  All Rights Reserved.
  
 This is part of the Gaussian(R) 09 program.  It is based on
 the Gaussian(R) 03 system (copyright 2003, Gaussian, Inc.),
 the Gaussian(R) 98 system (copyright 1998, Gaussian, Inc.),
 the Gaussian(R) 94 system (copyright 1995, Gaussian, Inc.),
 the Gaussian 92(TM) system (copyright 1992, Gaussian, Inc.),
 the Gaussian 90(TM) system (copyright 1990, Gaussian, Inc.),
 the Gaussian 88(TM) system (copyright 1988, Gaussian, Inc.),
 the Gaussian 86(TM) system (copyright 1986, Carnegie Mellon
 University), and the Gaussian 82(TM) system (copyright 1983,
 Carnegie Mellon University). Gaussian is a federally registered
 trademark of Gaussian, Inc.
  
 This software contains proprietary and confidential information,
 including trade secrets, belonging to Gaussian, Inc.
  
 This software is provided under written license and may be
 used, copied, transmitted, or stored only in accord with that
 written license.
  
 The following legend is applicable only to US Government
 contracts under FAR:
  
                    RESTRICTED RIGHTS LEGEND
  
 Use, reproduction and disclosure by the US Government is
 subject to restrictions as set forth in subparagraphs (a)
 and (c) of the Commercial Computer Software - Restricted
 Rights clause in FAR 52.227-19.
  
 Gaussian, Inc.
 340 Quinnipiac St., Bldg. 40, Wallingford CT 06492
  
  
 ---------------------------------------------------------------
 Warning -- This program may not be used in any manner that
 competes with the business of Gaussian, Inc. or will provide
 assistance to any competitor of Gaussian, Inc.  The licensee
 of this program is prohibited from giving any competitor of
 Gaussian, Inc. access to this program.  By using this program,
 the user acknowledges that Gaussian, Inc. is engaged in the
 business of creating and licensing software in the field of
 computational chemistry and represents and warrants to the
 licensee that it is not a competitor of Gaussian, Inc. and that
 it will not use this program in any manner prohibited above.
 ---------------------------------------------------------------
  

 Cite this work as:
 Gaussian 09, Revision D.01,
 M. J. Frisch, G. W. Trucks, H. B. Schlegel, G. E. Scuseria, 
 M. A. Robb, J. R. Cheeseman, G. Scalmani, V. Barone, B. Mennucci, 
 G. A. Petersson, H. Nakatsuji, M. Caricato, X. Li, H. P. Hratchian, 
 A. F. Izmaylov, J. Bloino, G. Zheng, J. L. Sonnenberg, M. Hada, 
 M. Ehara, K. Toyota, R. Fukuda, J. Hasegawa, M. Ishida, T. Nakajima, 
 Y. Honda, O. Kitao, H. Nakai, T. Vreven, J. A. Montgomery, Jr., 
 J. E. Peralta, F. Ogliaro, M. Bearpark, J. J. Heyd, E. Brothers, 
 K. N. Kudin, V. N. Staroverov, T. Keith, R. Kobayashi, J. Normand, 
 K. Raghavachari, A. Rendell, J. C. Burant, S. S. Iyengar, J. Tomasi, 
 M. Cossi, N. Rega, J. M. Millam, M. Klene, J. E. Knox, J. B. Cross, 
 V. Bakken, C. Adamo, J. Jaramillo, R. Gomperts, R. E. Stratmann, 
 O. Yazyev, A. J. Austin, R. Cammi, C. Pomelli, J. W. Ochterski, 
 R. L. Martin, K. Morokuma, V. G. Zakrzewski, G. A. Voth, 
 P. Salvador, J. J. Dannenberg, S. Dapprich, A. D. Daniels, 
 O. Farkas, J. B. Foresman, J. V. Ortiz, J. Cioslowski, 
 and D. J. Fox, Gaussian, Inc., Wallingford CT, 2013.
 
 ******************************************
 Gaussian 09:  ES64L-G09RevD.01 24-Apr-2013
                 9-Jan-2023 
 ******************************************
 %nprocshared=20
 Will use up to   20 processors via shared memory.
 %mem=4GB
 %chk=Traceless4_Smith.chk
 ----------------------------------------------------------------------
 # opt freq b3lyp/6-311+g(d,p) geom=connectivity pop=(hirshfeld,chelpg,
 mbs,npa)
 ----------------------------------------------------------------------
 1/14=-1,18=20,19=15,26=3,38=1,57=2/1,3;
 2/9=110,12=2,17=6,18=5,40=1/2;
 3/5=4,6=6,7=111,11=2,16=1,25=1,30=1,71=1,74=-5/1,2,3;
 4//1;
 5/5=2,38=5/2;
 6/7=2,8=2,9=2,10=2,15=8,20=3,27=100,28=1,40=-1,79=1/1,2,7;
 7//1,2,3,16;
 1/14=-1,18=20,19=15,26=3/3(2);
 2/9=110/2;
 99//99;
 2/9=110/2;
 3/5=4,6=6,7=111,11=2,16=1,25=1,30=1,71=1,74=-5/1,2,3;
 4/5=5,16=3,69=1/1;
 5/5=2,38=5/2;
 7//1,2,3,16;
 1/14=-1,18=20,19=15,26=3/3(-5);
 2/9=110/2;
 6/7=2,8=2,9=2,10=2,15=8,19=2,20=3,27=100,28=1,40=-1,79=1/1,2,7;
 99/9=1/99;
 -------------------
 Title Card Required
 -------------------
 Symbolic Z-matrix:
 Charge =  0 Multiplicity = 1
 C                    -1.96154  -1.2356    0. 
 C                    -0.77197  -1.96457   0. 
 C                     0.45383  -1.29925   0. 
 C                     0.49042   0.09569  -0.0012 
 C                    -0.6989    0.82442  -0.00168 
 C                    -1.92499   0.15875  -0.00068 
 H                     1.3915   -1.87377   0.00063 
 H                     1.45704   0.62005  -0.00126 
 H                    -2.86246   0.73345  -0.00086 
 N                    -0.66079   2.29393  -0.00295 
 H                    -0.1826    2.61568   0.81424 
 H                    -0.17921   2.61418  -0.81875 
 Cl                   -0.81817  -3.72396   0. 
 F                    -3.14795  -1.87975   0.00066 
 

 GradGradGradGradGradGradGradGradGradGradGradGradGradGradGradGradGradGrad
 Berny optimization.
 Initialization pass.
                           ----------------------------
                           !    Initial Parameters    !
                           ! (Angstroms and Degrees)  !
 --------------------------                            --------------------------
 ! Name  Definition              Value          Derivative Info.                !
 --------------------------------------------------------------------------------
 ! R1    R(1,2)                  1.3952         estimate D2E/DX2                !
 ! R2    R(1,6)                  1.3948         estimate D2E/DX2                !
 ! R3    R(1,14)                 1.35           estimate D2E/DX2                !
 ! R4    R(2,3)                  1.3947         estimate D2E/DX2                !
 ! R5    R(2,13)                 1.76           estimate D2E/DX2                !
 ! R6    R(3,4)                  1.3954         estimate D2E/DX2                !
 ! R7    R(3,7)                  1.0997         estimate D2E/DX2                !
 ! R8    R(4,5)                  1.3948         estimate D2E/DX2                !
 ! R9    R(4,8)                  1.0997         estimate D2E/DX2                !
 ! R10   R(5,6)                  1.3951         estimate D2E/DX2                !
 ! R11   R(5,10)                 1.47           estimate D2E/DX2                !
 ! R12   R(6,9)                  1.0996         estimate D2E/DX2                !
 ! R13   R(10,11)                1.0            estimate D2E/DX2                !
 ! R14   R(10,12)                1.0            estimate D2E/DX2                !
 ! A1    A(2,1,6)              119.9985         estimate D2E/DX2                !
 ! A2    A(2,1,14)             120.0008         estimate D2E/DX2                !
 ! A3    A(6,1,14)             120.0008         estimate D2E/DX2                !
 ! A4    A(1,2,3)              120.0086         estimate D2E/DX2                !
 ! A5    A(1,2,13)             119.9957         estimate D2E/DX2                !
 ! A6    A(3,2,13)             119.9957         estimate D2E/DX2                !
 ! A7    A(2,3,4)              119.9942         estimate D2E/DX2                !
 ! A8    A(2,3,7)              120.0128         estimate D2E/DX2                !
 ! A9    A(4,3,7)              119.993          estimate D2E/DX2                !
 ! A10   A(3,4,5)              119.994          estimate D2E/DX2                !
 ! A11   A(3,4,8)              119.9811         estimate D2E/DX2                !
 ! A12   A(5,4,8)              120.0249         estimate D2E/DX2                !
 ! A13   A(4,5,6)              120.0047         estimate D2E/DX2                !
 ! A14   A(4,5,10)             120.0113         estimate D2E/DX2                !
 ! A15   A(6,5,10)             119.984          estimate D2E/DX2                !
 ! A16   A(1,6,5)              120.0            estimate D2E/DX2                !
 ! A17   A(1,6,9)              120.008          estimate D2E/DX2                !
 ! A18   A(5,6,9)              119.992          estimate D2E/DX2                !
 ! A19   A(5,10,11)            109.4712         estimate D2E/DX2                !
 ! A20   A(5,10,12)            109.4712         estimate D2E/DX2                !
 ! A21   A(11,10,12)           109.4713         estimate D2E/DX2                !
 ! D1    D(6,1,2,3)              0.0323         estimate D2E/DX2                !
 ! D2    D(6,1,2,13)          -179.9677         estimate D2E/DX2                !
 ! D3    D(14,1,2,3)          -179.9677         estimate D2E/DX2                !
 ! D4    D(14,1,2,13)            0.0323         estimate D2E/DX2                !
 ! D5    D(2,1,6,5)              0.0149         estimate D2E/DX2                !
 ! D6    D(2,1,6,9)            179.9892         estimate D2E/DX2                !
 ! D7    D(14,1,6,5)          -179.9851         estimate D2E/DX2                !
 ! D8    D(14,1,6,9)            -0.0108         estimate D2E/DX2                !
 ! D9    D(1,2,3,4)             -0.0568         estimate D2E/DX2                !
 ! D10   D(1,2,3,7)            179.9619         estimate D2E/DX2                !
 ! D11   D(13,2,3,4)           179.9432         estimate D2E/DX2                !
 ! D12   D(13,2,3,7)            -0.0381         estimate D2E/DX2                !
 ! D13   D(2,3,4,5)              0.0341         estimate D2E/DX2                !
 ! D14   D(2,3,4,8)           -179.9964         estimate D2E/DX2                !
 ! D15   D(7,3,4,5)           -179.9846         estimate D2E/DX2                !
 ! D16   D(7,3,4,8)             -0.0151         estimate D2E/DX2                !
 ! D17   D(3,4,5,6)              0.0131         estimate D2E/DX2                !
 ! D18   D(3,4,5,10)          -179.9995         estimate D2E/DX2                !
 ! D19   D(8,4,5,6)           -179.9563         estimate D2E/DX2                !
 ! D20   D(8,4,5,10)             0.0311         estimate D2E/DX2                !
 ! D21   D(4,5,6,1)             -0.0376         estimate D2E/DX2                !
 ! D22   D(4,5,6,9)            179.9881         estimate D2E/DX2                !
 ! D23   D(10,5,6,1)           179.975          estimate D2E/DX2                !
 ! D24   D(10,5,6,9)             0.0007         estimate D2E/DX2                !
 ! D25   D(4,5,10,11)          -60.1262         estimate D2E/DX2                !
 ! D26   D(4,5,10,12)           59.8738         estimate D2E/DX2                !
 ! D27   D(6,5,10,11)          119.8611         estimate D2E/DX2                !
 ! D28   D(6,5,10,12)         -120.1389         estimate D2E/DX2                !
 --------------------------------------------------------------------------------
 Trust Radius=3.00D-01 FncErr=1.00D-07 GrdErr=1.00D-06
 Number of steps in this run=     73 maximum allowed number of steps=    100.
 GradGradGradGradGradGradGradGradGradGradGradGradGradGradGradGradGradGrad

                          Input orientation:                          
 ---------------------------------------------------------------------
 Center     Atomic      Atomic             Coordinates (Angstroms)
 Number     Number       Type             X           Y           Z
 ---------------------------------------------------------------------
      1          6           0       -1.961540   -1.235600    0.000000
      2          6           0       -0.771971   -1.964569    0.000000
      3          6           0        0.453826   -1.299254    0.000000
      4          6           0        0.490423    0.095692   -0.001199
      5          6           0       -0.698902    0.824420   -0.001678
      6          6           0       -1.924990    0.158750   -0.000682
      7          1           0        1.391499   -1.873767    0.000634
      8          1           0        1.457039    0.620049   -0.001258
      9          1           0       -2.862461    0.733448   -0.000862
     10          7           0       -0.660795    2.293925   -0.002952
     11          1           0       -0.182604    2.615678    0.814244
     12          1           0       -0.179213    2.614175   -0.818746
     13         17           0       -0.818175   -3.723962    0.000000
     14          9           0       -3.147952   -1.879748    0.000660
 ---------------------------------------------------------------------
                    Distance matrix (angstroms):
                    1          2          3          4          5
     1  C    0.000000
     2  C    1.395160   0.000000
     3  C    2.416205   1.394712   0.000000
     4  C    2.790065   2.416260   1.395427   0.000000
     5  C    2.416183   2.789946   2.416356   1.394825   0.000000
     6  C    1.394829   2.416183   2.790080   2.416236   1.395138
     7  H    3.413229   2.165375   1.099680   2.165806   3.413209
     8  H    3.889745   3.413024   2.165678   1.099680   2.165606
     9  H    2.165365   3.413128   3.889684   3.412999   2.165471
    10  N    3.761581   4.259946   3.762091   2.481438   1.470000
    11  H    4.319716   4.689244   4.049041   2.732808   2.034920
    12  H    4.320625   4.688987   4.047964   2.731218   2.034920
    13  Cl   2.738473   1.760000   2.738101   4.037597   4.549946
    14  F    1.350000   2.377495   3.648257   4.140065   3.648339
                    6          7          8          9         10
     6  C    0.000000
     7  H    3.889760   0.000000
     8  H    3.413344   2.494678   0.000000
     9  H    1.099604   4.989364   4.320988   0.000000
    10  N    2.481364   4.645598   2.699460   2.698598   0.000000
    11  H    3.120338   4.826477   2.708507   3.374733   1.000000
    12  H    3.121870   4.824951   2.705946   3.377260   1.000000
    13  Cl   4.037387   2.881993   4.903777   4.903836   6.019946
    14  F    2.377207   4.539455   5.239745   2.628745   4.858550
                   11         12         13         14
    11  H    0.000000
    12  H    1.632993   0.000000
    13  Cl   6.423238   6.422663   0.000000
    14  F    5.446473   5.447951   2.971361   0.000000
 Stoichiometry    C6H5ClFN
 Framework group  C1[X(C6H5ClFN)]
 Deg. of freedom    36
 Full point group                 C1      NOp   1
 Largest Abelian subgroup         C1      NOp   1
 Largest concise Abelian subgroup C1      NOp   1
                         Standard orientation:                         
 ---------------------------------------------------------------------
 Center     Atomic      Atomic             Coordinates (Angstroms)
 Number     Number       Type             X           Y           Z
 ---------------------------------------------------------------------
      1          6           0       -0.280469    0.936548    0.000247
      2          6           0       -0.846538   -0.338614    0.000250
      3          6           0       -0.025683   -1.466186    0.000858
      4          6           0        1.361946   -1.318875    0.000265
      5          6           0        1.927808   -0.043988   -0.000217
      6          6           0        1.106563    1.083827    0.000170
      7          1           0       -0.471792   -2.471315    0.001495
      8          1           0        2.008958   -2.208072    0.000685
      9          1           0        1.552880    2.088779   -0.000012
     10          7           0        3.389547    0.111638   -0.000854
     11          1           0        3.771062   -0.319879    0.816605
     12          1           0        3.770765   -0.323774   -0.816383
     13         17           0       -2.596708   -0.524367   -0.000513
     14          9           0       -1.075159    2.027863    0.000319
 ---------------------------------------------------------------------
 Rotational constants (GHZ):      2.8478633      0.9271332      0.7020420
 Standard basis: 6-311+G(d,p) (5D, 7F)
 There are   245 symmetry adapted cartesian basis functions of A   symmetry.
 There are   236 symmetry adapted basis functions of A   symmetry.
   236 basis functions,   381 primitive gaussians,   245 cartesian basis functions
    37 alpha electrons       37 beta electrons
       nuclear repulsion energy       485.9400789826 Hartrees.
 NAtoms=   14 NActive=   14 NUniq=   14 SFac= 1.00D+00 NAtFMM=   60 NAOKFM=F Big=F
 Integral buffers will be    131072 words long.
 Raffenetti 2 integral format.
 Two-electron integral symmetry is turned on.
 One-electron integrals computed using PRISM.
 NBasis=   236 RedAO= T EigKep=  2.36D-06  NBF=   236
 NBsUse=   236 1.00D-06 EigRej= -1.00D+00 NBFU=   236
 ExpMin= 4.38D-02 ExpMax= 1.06D+05 ExpMxC= 3.62D+03 IAcc=2 IRadAn=         4 AccDes= 0.00D+00
 Harris functional with IExCor=  402 and IRadAn=       4 diagonalized for initial guess.
 HarFok:  IExCor=  402 AccDes= 0.00D+00 IRadAn=         4 IDoV= 1 UseB2=F ITyADJ=14
 ICtDFT=  3500011 ScaDFX=  1.000000  1.000000  1.000000  1.000000
 FoFCou: FMM=F IPFlag=           0 FMFlag=      100000 FMFlg1=           0
         NFxFlg=           0 DoJE=T BraDBF=F KetDBF=T FulRan=T
         wScrn=  0.000000 ICntrl=     500 IOpCl=  0 I1Cent=   200000004 NGrid=           0
         NMat0=    1 NMatS0=      1 NMatT0=    0 NMatD0=    1 NMtDS0=    0 NMtDT0=    0
 Petite list used in FoFCou.
 Keep R1 ints in memory in canonical form, NReq=398711246.
 Requested convergence on RMS density matrix=1.00D-08 within 128 cycles.
 Requested convergence on MAX density matrix=1.00D-06.
 Requested convergence on             energy=1.00D-06.
 No special actions if energy rises.
 SCF Done:  E(RB3LYP) =  -846.562918728     A.U. after   14 cycles
            NFock= 14  Conv=0.90D-08     -V/T= 2.0032

 **********************************************************************

            Population analysis using the SCF density.

 **********************************************************************

 Orbital symmetries:
       Occupied  (A) (A) (A) (A) (A) (A) (A) (A) (A) (A) (A) (A)
                 (A) (A) (A) (A) (A) (A) (A) (A) (A) (A) (A) (A)
                 (A) (A) (A) (A) (A) (A) (A) (A) (A) (A) (A) (A)
                 (A)
       Virtual   (A) (A) (A) (A) (A) (A) (A) (A) (A) (A) (A) (A)
                 (A) (A) (A) (A) (A) (A) (A) (A) (A) (A) (A) (A)
                 (A) (A) (A) (A) (A) (A) (A) (A) (A) (A) (A) (A)
                 (A) (A) (A) (A) (A) (A) (A) (A) (A) (A) (A) (A)
                 (A) (A) (A) (A) (A) (A) (A) (A) (A) (A) (A) (A)
                 (A) (A) (A) (A) (A) (A) (A) (A) (A) (A) (A) (A)
                 (A) (A) (A) (A) (A) (A) (A) (A) (A) (A) (A) (A)
                 (A) (A) (A) (A) (A) (A) (A) (A) (A) (A) (A) (A)
                 (A) (A) (A) (A) (A) (A) (A) (A) (A) (A) (A) (A)
                 (A) (A) (A) (A) (A) (A) (A) (A) (A) (A) (A) (A)
                 (A) (A) (A) (A) (A) (A) (A) (A) (A) (A) (A) (A)
                 (A) (A) (A) (A) (A) (A) (A) (A) (A) (A) (A) (A)
                 (A) (A) (A) (A) (A) (A) (A) (A) (A) (A) (A) (A)
                 (A) (A) (A) (A) (A) (A) (A) (A) (A) (A) (A) (A)
                 (A) (A) (A) (A) (A) (A) (A) (A) (A) (A) (A) (A)
                 (A) (A) (A) (A) (A) (A) (A) (A) (A) (A) (A) (A)
                 (A) (A) (A) (A) (A) (A) (A)
 The electronic state is 1-A.
 Alpha  occ. eigenvalues -- -101.56477 -24.70711 -14.31819 -10.28616 -10.25576
 Alpha  occ. eigenvalues --  -10.23447 -10.20960 -10.20244 -10.20008  -9.47896
 Alpha  occ. eigenvalues --   -7.24387  -7.23372  -7.23329  -1.24605  -0.92614
 Alpha  occ. eigenvalues --   -0.89777  -0.84232  -0.77689  -0.73935  -0.64688
 Alpha  occ. eigenvalues --   -0.62557  -0.56098  -0.52385  -0.51448  -0.51103
 Alpha  occ. eigenvalues --   -0.48822  -0.47128  -0.45595  -0.43195  -0.40545
 Alpha  occ. eigenvalues --   -0.39888  -0.38511  -0.34675  -0.32662  -0.27782
 Alpha  occ. eigenvalues --   -0.27702  -0.26118
 Alpha virt. eigenvalues --   -0.03998  -0.03367  -0.01173  -0.00553   0.01142
 Alpha virt. eigenvalues --    0.02586   0.04149   0.04774   0.05023   0.05883
 Alpha virt. eigenvalues --    0.06803   0.06969   0.08214   0.08811   0.09893
 Alpha virt. eigenvalues --    0.10969   0.11837   0.12003   0.12332   0.13001
 Alpha virt. eigenvalues --    0.13794   0.14767   0.15091   0.15398   0.16085
 Alpha virt. eigenvalues --    0.16367   0.16793   0.17687   0.19067   0.19187
 Alpha virt. eigenvalues --    0.19664   0.20331   0.20996   0.21050   0.21538
 Alpha virt. eigenvalues --    0.23046   0.23404   0.24157   0.25672   0.25919
 Alpha virt. eigenvalues --    0.27301   0.27742   0.29068   0.29961   0.33211
 Alpha virt. eigenvalues --    0.34400   0.34832   0.35777   0.37635   0.39313
 Alpha virt. eigenvalues --    0.42990   0.43700   0.45573   0.46783   0.48786
 Alpha virt. eigenvalues --    0.50214   0.51156   0.53307   0.53357   0.54424
 Alpha virt. eigenvalues --    0.54999   0.55956   0.57505   0.59135   0.59298
 Alpha virt. eigenvalues --    0.60198   0.60510   0.64869   0.65795   0.68122
 Alpha virt. eigenvalues --    0.70077   0.71685   0.73458   0.76047   0.78080
 Alpha virt. eigenvalues --    0.80623   0.81299   0.81860   0.83419   0.84959
 Alpha virt. eigenvalues --    0.85309   0.85990   0.86875   0.87731   0.89906
 Alpha virt. eigenvalues --    0.91398   0.93960   0.95412   0.97531   0.98783
 Alpha virt. eigenvalues --    1.00433   1.00748   1.02644   1.06552   1.12366
 Alpha virt. eigenvalues --    1.15168   1.16529   1.21480   1.22750   1.27070
 Alpha virt. eigenvalues --    1.29272   1.37729   1.40798   1.42967   1.43681
 Alpha virt. eigenvalues --    1.45129   1.49576   1.51645   1.53023   1.54485
 Alpha virt. eigenvalues --    1.55619   1.57774   1.59950   1.64864   1.65918
 Alpha virt. eigenvalues --    1.67401   1.68496   1.70685   1.79010   1.82368
 Alpha virt. eigenvalues --    1.83153   1.87175   1.88776   1.91325   1.92316
 Alpha virt. eigenvalues --    1.94376   1.94494   1.99034   1.99152   2.02365
 Alpha virt. eigenvalues --    2.05564   2.10871   2.12759   2.15036   2.23617
 Alpha virt. eigenvalues --    2.27278   2.27312   2.28776   2.35811   2.39829
 Alpha virt. eigenvalues --    2.42880   2.49901   2.50919   2.55140   2.55192
 Alpha virt. eigenvalues --    2.58156   2.61025   2.63401   2.66601   2.68497
 Alpha virt. eigenvalues --    2.73515   2.75709   2.76842   2.78548   2.79667
 Alpha virt. eigenvalues --    2.82366   2.86061   2.86978   2.88025   3.03982
 Alpha virt. eigenvalues --    3.05244   3.10178   3.11586   3.13987   3.15908
 Alpha virt. eigenvalues --    3.29801   3.32554   3.41790   3.49638   3.62905
 Alpha virt. eigenvalues --    3.77306   3.77376   3.81179   3.86975   3.97238
 Alpha virt. eigenvalues --    4.04407   4.07929   4.11534   4.15290   4.75607
 Alpha virt. eigenvalues --    4.82124   4.84625   4.87628   6.31652   6.43308
 Alpha virt. eigenvalues --    6.72294   9.77346  23.44418  23.84697  23.88434
 Alpha virt. eigenvalues --   23.99536  24.04505  24.13225  25.82506  26.12763
 Alpha virt. eigenvalues --   26.60632  35.61711  66.78788 215.76474
          Condensed to atoms (all electrons):
               1          2          3          4          5          6
     1  C   14.607194  -2.685292  -3.313898  -2.119750   1.225561  -0.995979
     2  C   -2.685292  14.204345  -2.137821  -0.219009  -2.772479  -0.678277
     3  C   -3.313898  -2.137821  12.790136   0.305819   1.186108  -2.119324
     4  C   -2.119750  -0.219009   0.305819   7.236756   0.039194   0.276561
     5  C    1.225561  -2.772479   1.186108   0.039194   8.836725  -2.080451
     6  C   -0.995979  -0.678277  -2.119324   0.276561  -2.080451  10.591339
     7  H    0.016557   0.046019   0.312201  -0.030157  -0.010866   0.005304
     8  H   -0.000834   0.022933   0.010437   0.445970  -0.064332  -0.050200
     9  H   -0.051765  -0.005867   0.004368  -0.009042   0.038644   0.387238
    10  N    0.009989   0.046114  -0.119564  -0.204896   0.206522   0.081497
    11  H   -0.000401   0.000593  -0.008843   0.010696  -0.036017   0.001221
    12  H   -0.000301   0.000470  -0.008378   0.009922  -0.035762   0.001440
    13  Cl  -0.111926  -0.908036   0.056170   0.253091  -0.106446   0.357894
    14  F    0.481982  -0.254813  -0.000734   0.011207  -0.026465  -0.221380
               7          8          9         10         11         12
     1  C    0.016557  -0.000834  -0.051765   0.009989  -0.000401  -0.000301
     2  C    0.046019   0.022933  -0.005867   0.046114   0.000593   0.000470
     3  C    0.312201   0.010437   0.004368  -0.119564  -0.008843  -0.008378
     4  C   -0.030157   0.445970  -0.009042  -0.204896   0.010696   0.009922
     5  C   -0.010866  -0.064332   0.038644   0.206522  -0.036017  -0.035762
     6  C    0.005304  -0.050200   0.387238   0.081497   0.001221   0.001440
     7  H    0.506014  -0.007191   0.000029  -0.001406   0.000029   0.000029
     8  H   -0.007191   0.533789  -0.000117  -0.028816   0.000931   0.000943
     9  H    0.000029  -0.000117   0.494431  -0.004541   0.000307   0.000306
    10  N   -0.001406  -0.028816  -0.004541   6.625158   0.401110   0.400911
    11  H    0.000029   0.000931   0.000307   0.401110   0.445334  -0.053065
    12  H    0.000029   0.000943   0.000306   0.400911  -0.053065   0.445636
    13  Cl   0.004312   0.001051   0.001540   0.004744  -0.000040  -0.000040
    14  F   -0.000289   0.000058  -0.007603  -0.000550   0.000030   0.000030
              13         14
     1  C   -0.111926   0.481982
     2  C   -0.908036  -0.254813
     3  C    0.056170  -0.000734
     4  C    0.253091   0.011207
     5  C   -0.106446  -0.026465
     6  C    0.357894  -0.221380
     7  H    0.004312  -0.000289
     8  H    0.001051   0.000058
     9  H    0.001540  -0.007603
    10  N    0.004744  -0.000550
    11  H   -0.000040   0.000030
    12  H   -0.000040   0.000030
    13  Cl  17.133739   0.027941
    14  F    0.027941   9.143279
 Mulliken charges:
               1
     1  C   -1.061138
     2  C    1.341120
     3  C   -0.956678
     4  C   -0.006364
     5  C   -0.399937
     6  C    0.443116
     7  H    0.159416
     8  H    0.135378
     9  H    0.152072
    10  N   -0.416273
    11  H    0.238117
    12  H    0.237860
    13  Cl   0.286006
    14  F   -0.152695
 Sum of Mulliken charges =   0.00000
 Mulliken charges with hydrogens summed into heavy atoms:
               1
     1  C   -1.061138
     2  C    1.341120
     3  C   -0.797262
     4  C    0.129015
     5  C   -0.399937
     6  C    0.595187
    10  N    0.059704
    13  Cl   0.286006
    14  F   -0.152695
 Electronic spatial extent (au):  <R**2>=           1490.4727
 Charge=              0.0000 electrons
 Dipole moment (field-independent basis, Debye):
    X=              2.5608    Y=             -2.4400    Z=              0.0040  Tot=              3.5371
 Quadrupole moment (field-independent basis, Debye-Ang):
   XX=            -57.5694   YY=            -57.2654   ZZ=            -59.3074
   XY=             -3.8875   XZ=              0.0140   YZ=              0.0042
 Traceless Quadrupole moment (field-independent basis, Debye-Ang):
   XX=              0.4780   YY=              0.7820   ZZ=             -1.2600
   XY=             -3.8875   XZ=              0.0140   YZ=              0.0042
 Octapole moment (field-independent basis, Debye-Ang**2):
  XXX=              2.4571  YYY=              0.8013  ZZZ=             -0.0004  XYY=              1.0223
  XXY=            -20.1443  XXZ=              0.0512  XZZ=              0.8089  YZZ=              5.3217
  YYZ=              0.0064  XYZ=              0.0292
 Hexadecapole moment (field-independent basis, Debye-Ang**3):
 XXXX=          -1296.3740 YYYY=           -443.3842 ZZZZ=            -70.0896 XXXY=            -98.8988
 XXXZ=              0.2396 YYYX=             -4.5325 YYYZ=             -0.0145 ZZZX=              0.0135
 ZZZY=              0.0178 XXYY=           -316.8362 XXZZ=           -222.3119 YYZZ=            -94.3654
 XXYZ=              0.1126 YYXZ=             -0.0003 ZZXY=             -7.5786
 N-N= 4.859400789826D+02 E-N=-2.969569774941D+03  KE= 8.438654275399D+02
 There are a total of      114762 grid points.
 ElSum from          density=       73.9999551773
 ElSum from atomic densities=       73.9999324659

 Hirshfeld populations at iteration   1 (CX, CA, CB, DipXYZ):
               1          2          3          4          5          6
     1  C    0.000000   2.962479   2.962479  -0.078886   0.119783  -0.000027
     2  C    0.000001   2.991260   2.991260  -0.087024  -0.008818  -0.000046
     3  C    0.000000   3.021600   3.021600  -0.020177  -0.059806   0.000098
     4  C    0.000000   3.029001   3.029001   0.035685  -0.050956  -0.000059
     5  C    0.000000   2.975559   2.975559   0.109313   0.012340  -0.000079
     6  C    0.000000   3.026227   3.026227   0.020127   0.051022   0.000063
     7  H    0.000003   0.469674   0.469674  -0.050812  -0.157226   0.000118
     8  H    0.000001   0.474417   0.474417   0.084810  -0.134481   0.000069
     9  H    0.000002   0.467673   0.467673   0.057797   0.153913  -0.000013
    10  N    0.000000   3.616768   3.616768  -0.071644  -0.185748   0.000469
    11  H    0.000001   0.444185   0.444185   0.078088  -0.091307   0.166217
    12  H    0.000001   0.444189   0.444189   0.078032  -0.092089  -0.165792
    13  Cl   0.000009   8.534704   8.534704  -0.017767  -0.004084  -0.000041
    14  F    0.000012   4.542241   4.542241   0.079065  -0.105250  -0.000009
       Tot   0.000031  36.999978  36.999978   0.216606  -0.552707   0.000967

 Dip from Atomic Chgs              0.790617  -0.407160   0.000596
         Total Dipole              1.007224  -0.959867   0.001563

 Hirshfeld charges, spin densities, dipoles, and CM5 charges using IRadAn=      4:
              Q-H        S-H        Dx         Dy         Dz        Q-CM5   
     1  C    0.075042   0.000000  -0.078886   0.119783  -0.000027   0.053375
     2  C    0.017480   0.000000  -0.087024  -0.008818  -0.000046   0.012631
     3  C   -0.043200   0.000000  -0.020177  -0.059806   0.000098  -0.093152
     4  C   -0.058003   0.000000   0.035685  -0.050956  -0.000059  -0.105358
     5  C    0.048883   0.000000   0.109313   0.012340  -0.000079   0.087007
     6  C   -0.052454   0.000000   0.020127   0.051022   0.000063  -0.096934
     7  H    0.060651   0.000000  -0.050812  -0.157226   0.000118   0.113291
     8  H    0.051165   0.000000   0.084810  -0.134481   0.000069   0.107639
     9  H    0.064654   0.000000   0.057797   0.153913  -0.000013   0.120149
    10  N   -0.233537   0.000000  -0.071644  -0.185748   0.000469  -0.679050
    11  H    0.111630   0.000000   0.078088  -0.091307   0.166217   0.305591
    12  H    0.111622   0.000000   0.078032  -0.092089  -0.165792   0.305584
    13  Cl  -0.069407   0.000000  -0.017767  -0.004084  -0.000041  -0.067955
    14  F   -0.084481   0.000000   0.079065  -0.105250  -0.000009  -0.062774
       Tot   0.000045   0.000000   0.216606  -0.552707   0.000967   0.000045
 Hirshfeld charges with hydrogens summed into heavy atoms:
              Q-H       Q-CM5   
     1  C    0.075042   0.053375
     2  C    0.017480   0.012631
     3  C    0.017451   0.020139
     4  C   -0.006838   0.002282
     5  C    0.048883   0.087007
     6  C    0.012200   0.023216
    10  N   -0.010285  -0.067875
    13  Cl  -0.069407  -0.067955
    14  F   -0.084481  -0.062774
 
 EQQ= 0.000000000000E+00 EQD= 0.000000000000E+00 EDD= 0.630431659625E-02
 EQQ+QD+DD= 0.630431659625E-02
 
          MBS Condensed to atoms (all electrons):
               1          2          3          4          5          6
     1  C    4.644545   0.488368  -0.030168  -0.009627  -0.025839   0.492242
     2  C    0.488368   4.757710   0.502912  -0.029465  -0.010121  -0.035101
     3  C   -0.030168   0.502912   4.820177   0.499237  -0.030070  -0.008808
     4  C   -0.009627  -0.029465   0.499237   4.858008   0.500216  -0.037578
     5  C   -0.025839  -0.010121  -0.030070   0.500216   4.715227   0.501493
     6  C    0.492242  -0.035101  -0.008808  -0.037578   0.501493   4.861498
     7  H    0.001241  -0.024369   0.385261  -0.022684   0.001405   0.000006
     8  H    0.000053   0.001400  -0.023648   0.384972  -0.025110   0.001452
     9  H   -0.022638   0.001191   0.000055   0.001449  -0.021618   0.380088
    10  N    0.000562   0.000009   0.000657  -0.028512   0.342391  -0.029685
    11  H   -0.000040   0.000004  -0.000002  -0.001944  -0.029641   0.001128
    12  H   -0.000040   0.000004  -0.000002  -0.001961  -0.029645   0.001137
    13  Cl  -0.026983   0.263557  -0.027347   0.000648   0.000019   0.000560
    14  F    0.245947  -0.019439   0.000194   0.000003   0.000203  -0.018438
               7          8          9         10         11         12
     1  C    0.001241   0.000053  -0.022638   0.000562  -0.000040  -0.000040
     2  C   -0.024369   0.001400   0.001191   0.000009   0.000004   0.000004
     3  C    0.385261  -0.023648   0.000055   0.000657  -0.000002  -0.000002
     4  C   -0.022684   0.384972   0.001449  -0.028512  -0.001944  -0.001961
     5  C    0.001405  -0.025110  -0.021618   0.342391  -0.029641  -0.029645
     6  C    0.000006   0.001452   0.380088  -0.029685   0.001128   0.001137
     7  H    0.537723  -0.003938   0.000001  -0.000012   0.000000   0.000000
     8  H   -0.003938   0.556248  -0.000041  -0.002127   0.000676   0.000682
     9  H    0.000001  -0.000041   0.521699  -0.001038   0.000068   0.000068
    10  N   -0.000012  -0.002127  -0.001038   6.657331   0.333592   0.333601
    11  H    0.000000   0.000676   0.000068   0.333592   0.466040  -0.030751
    12  H    0.000000   0.000682   0.000068   0.333601  -0.030751   0.466075
    13  Cl  -0.002012  -0.000011  -0.000014   0.000000   0.000000   0.000000
    14  F   -0.000003   0.000000  -0.000609   0.000000   0.000000   0.000000
              13         14
     1  C   -0.026983   0.245947
     2  C    0.263557  -0.019439
     3  C   -0.027347   0.000194
     4  C    0.000648   0.000003
     5  C    0.000019   0.000203
     6  C    0.000560  -0.018438
     7  H   -0.002012  -0.000003
     8  H   -0.000011   0.000000
     9  H   -0.000014  -0.000609
    10  N    0.000000   0.000000
    11  H    0.000000   0.000000
    12  H    0.000000   0.000000
    13  Cl  16.980198   0.000200
    14  F    0.000200   9.041781
 MBS Mulliken charges:
               1
     1  C    0.242376
     2  C    0.103341
     3  C   -0.088447
     4  C   -0.112760
     5  C    0.111090
     6  C   -0.109993
     7  H    0.127380
     8  H    0.109392
     9  H    0.141340
    10  N   -0.606768
    11  H    0.260869
    12  H    0.260833
    13  Cl  -0.188814
    14  F   -0.249839
 Sum of MBS Mulliken charges =   0.00000
 MBS Mulliken charges with hydrogens summed into heavy atoms:
               1
     1  C    0.242376
     2  C    0.103341
     3  C    0.038933
     4  C   -0.003368
     5  C    0.111090
     6  C    0.031347
    10  N   -0.085066
    13  Cl  -0.188814
    14  F   -0.249839
 Breneman (CHELPG) radii used.
 Generate Potential Derived Charges using the Breneman model, NDens= 1.
 Grid spacing= 0.300 Box extension= 2.800
 NStep X,Y,Z=   41     35     26   Total possible points=       37310
 Number of Points to Fit=   10341

 **********************************************************************

            Electrostatic Properties Using The SCF Density

 **********************************************************************

       Atomic Center    1 is at  -0.280469  0.936548  0.000247
       Atomic Center    2 is at  -0.846538 -0.338614  0.000250
       Atomic Center    3 is at  -0.025683 -1.466186  0.000858
       Atomic Center    4 is at   1.361946 -1.318875  0.000265
       Atomic Center    5 is at   1.927808 -0.043988 -0.000217
       Atomic Center    6 is at   1.106563  1.083827  0.000170
       Atomic Center    7 is at  -0.471792 -2.471315  0.001495
       Atomic Center    8 is at   2.008958 -2.208072  0.000685
       Atomic Center    9 is at   1.552880  2.088779 -0.000012
       Atomic Center   10 is at   3.389547  0.111638 -0.000854
       Atomic Center   11 is at   3.771062 -0.319879  0.816605
       Atomic Center   12 is at   3.770765 -0.323774 -0.816383
       Atomic Center   13 is at  -2.596708 -0.524367 -0.000513
       Atomic Center   14 is at  -1.075159  2.027863  0.000319
   10341 points will be used for fitting atomic charges
 Fitting point charges to electrostatic potential
 Charges from ESP fit, RMS=   0.00436 RRMS=   0.29108:
 ESP charges:
               1
     1  C    0.417356
     2  C   -0.112142
     3  C    0.028951
     4  C   -0.391686
     5  C    0.545168
     6  C   -0.377017
     7  H    0.105360
     8  H    0.154947
     9  H    0.183203
    10  N   -0.950125
    11  H    0.356014
    12  H    0.356197
    13  Cl  -0.086820
    14  F   -0.229406
 Sum of ESP charges =   0.00000
 ESP charges with hydrogens summed into heavy atoms:
               1
     1  C    0.417356
     2  C   -0.112142
     3  C    0.134311
     4  C   -0.236738
     5  C    0.545168
     6  C   -0.193814
    10  N   -0.237915
    13  Cl  -0.086820
    14  F   -0.229406
 Charge=   0.00000 Dipole=     2.6937    -2.4228     0.0038 Tot=     3.6230
 -----------------------------------------------------------------

              Electrostatic Properties (Atomic Units)

 -----------------------------------------------------------------
    Center     Electric         -------- Electric Field --------
               Potential          X             Y             Z
 -----------------------------------------------------------------
    1 Atom    -14.662503
    2 Atom    -14.694015
    3 Atom    -14.741494
    4 Atom    -14.751401
    5 Atom    -14.714458
    6 Atom    -14.749015
    7 Atom     -1.076035
    8 Atom     -1.079220
    9 Atom     -1.077347
   10 Atom    -18.393935
   11 Atom     -1.040781
   12 Atom     -1.040793
   13 Atom    -64.386063
   14 Atom    -26.575277
 -----------------------------------------------------------------
 ******************************Gaussian NBO Version 3.1******************************
             N A T U R A L   A T O M I C   O R B I T A L   A N D
          N A T U R A L   B O N D   O R B I T A L   A N A L Y S I S
 ******************************Gaussian NBO Version 3.1******************************
       /RESON  / : Allow strongly delocalized NBO set

 Analyzing the SCF density

 Job title: Title Card Required                                             

 Storage needed:    168242 in NPA ( 536869820 available)


 NATURAL POPULATIONS:  Natural atomic orbital occupancies 
                                                          
   NAO  Atom  No  lang   Type(AO)    Occupancy      Energy
 ----------------------------------------------------------
     1    C    1  S      Cor( 1S)     1.99826     -10.15903
     2    C    1  S      Val( 2S)     0.82673      -0.17339
     3    C    1  S      Ryd( 3S)     0.00134       0.88442
     4    C    1  S      Ryd( 4S)     0.00019       1.97688
     5    C    1  S      Ryd( 5S)     0.00002      21.31501
     6    C    1  px     Val( 2p)     0.94197      -0.09219
     7    C    1  px     Ryd( 4p)     0.00641       1.19896
     8    C    1  px     Ryd( 3p)     0.00045       0.54384
     9    C    1  px     Ryd( 5p)     0.00022       2.66455
    10    C    1  py     Val( 2p)     0.80915      -0.09187
    11    C    1  py     Ryd( 4p)     0.00846       1.15040
    12    C    1  py     Ryd( 3p)     0.00062       0.50077
    13    C    1  py     Ryd( 5p)     0.00021       2.69566
    14    C    1  pz     Val( 2p)     1.00161      -0.15188
    15    C    1  pz     Ryd( 4p)     0.00117       0.65830
    16    C    1  pz     Ryd( 3p)     0.00065       0.35758
    17    C    1  pz     Ryd( 5p)     0.00009       2.53828
    18    C    1  dxy    Ryd( 3d)     0.00226       2.43487
    19    C    1  dxz    Ryd( 3d)     0.00130       1.58480
    20    C    1  dyz    Ryd( 3d)     0.00180       1.56509
    21    C    1  dx2y2  Ryd( 3d)     0.00198       2.56452
    22    C    1  dz2    Ryd( 3d)     0.00064       1.99389

    23    C    2  S      Cor( 1S)     1.99850     -10.12801
    24    C    2  S      Val( 2S)     0.94281      -0.24191
    25    C    2  S      Ryd( 4S)     0.00075       0.76185
    26    C    2  S      Ryd( 3S)     0.00030       0.58090
    27    C    2  S      Ryd( 5S)     0.00001      23.30256
    28    C    2  px     Val( 2p)     0.93972      -0.17588
    29    C    2  px     Ryd( 3p)     0.00647       1.00900
    30    C    2  px     Ryd( 4p)     0.00038       1.06983
    31    C    2  px     Ryd( 5p)     0.00027       2.37088
    32    C    2  py     Val( 2p)     1.09205      -0.10913
    33    C    2  py     Ryd( 3p)     0.00666       0.83865
    34    C    2  py     Ryd( 4p)     0.00010       0.99290
    35    C    2  py     Ryd( 5p)     0.00025       2.70004
    36    C    2  pz     Val( 2p)     1.10695      -0.16587
    37    C    2  pz     Ryd( 3p)     0.00100       0.59407
    38    C    2  pz     Ryd( 4p)     0.00030       0.64659
    39    C    2  pz     Ryd( 5p)     0.00005       2.30345
    40    C    2  dxy    Ryd( 3d)     0.00126       2.45743
    41    C    2  dxz    Ryd( 3d)     0.00156       1.47472
    42    C    2  dyz    Ryd( 3d)     0.00066       1.62263
    43    C    2  dx2y2  Ryd( 3d)     0.00188       2.20317
    44    C    2  dz2    Ryd( 3d)     0.00087       2.01254

    45    C    3  S      Cor( 1S)     1.99900     -10.06077
    46    C    3  S      Val( 2S)     0.95136      -0.19013
    47    C    3  S      Ryd( 3S)     0.00223       0.75916
    48    C    3  S      Ryd( 4S)     0.00044       1.14029
    49    C    3  S      Ryd( 5S)     0.00001      22.68976
    50    C    3  px     Val( 2p)     1.08373      -0.07939
    51    C    3  px     Ryd( 4p)     0.00646       0.80063
    52    C    3  px     Ryd( 3p)     0.00039       0.41739
    53    C    3  px     Ryd( 5p)     0.00014       3.12210
    54    C    3  py     Val( 2p)     1.16163      -0.09654
    55    C    3  py     Ryd( 4p)     0.00554       0.98925
    56    C    3  py     Ryd( 3p)     0.00027       0.31934
    57    C    3  py     Ryd( 5p)     0.00009       3.16782
    58    C    3  pz     Val( 2p)     0.99123      -0.13449
    59    C    3  pz     Ryd( 4p)     0.00076       0.50297
    60    C    3  pz     Ryd( 3p)     0.00043       0.30446
    61    C    3  pz     Ryd( 5p)     0.00001       2.65162
    62    C    3  dxy    Ryd( 3d)     0.00076       2.48479
    63    C    3  dxz    Ryd( 3d)     0.00051       1.63609
    64    C    3  dyz    Ryd( 3d)     0.00049       1.59142
    65    C    3  dx2y2  Ryd( 3d)     0.00064       2.50414
    66    C    3  dz2    Ryd( 3d)     0.00043       2.01024

    67    C    4  S      Cor( 1S)     1.99900     -10.05217
    68    C    4  S      Val( 2S)     0.95289      -0.18267
    69    C    4  S      Ryd( 3S)     0.00203       0.71135
    70    C    4  S      Ryd( 4S)     0.00018       1.34179
    71    C    4  S      Ryd( 5S)     0.00001      22.47967
    72    C    4  px     Val( 2p)     1.09636      -0.07450
    73    C    4  px     Ryd( 4p)     0.00655       0.91243
    74    C    4  px     Ryd( 3p)     0.00044       0.36457
    75    C    4  px     Ryd( 5p)     0.00012       3.11796
    76    C    4  py     Val( 2p)     1.14236      -0.08327
    77    C    4  py     Ryd( 4p)     0.00477       0.90604
    78    C    4  py     Ryd( 3p)     0.00035       0.35639
    79    C    4  py     Ryd( 5p)     0.00012       3.13438
    80    C    4  pz     Val( 2p)     1.01925      -0.13283
    81    C    4  pz     Ryd( 4p)     0.00096       0.48961
    82    C    4  pz     Ryd( 3p)     0.00030       0.28463
    83    C    4  pz     Ryd( 5p)     0.00001       2.67779
    84    C    4  dxy    Ryd( 3d)     0.00068       2.46796
    85    C    4  dxz    Ryd( 3d)     0.00048       1.62643
    86    C    4  dyz    Ryd( 3d)     0.00048       1.61899
    87    C    4  dx2y2  Ryd( 3d)     0.00068       2.54904
    88    C    4  dz2    Ryd( 3d)     0.00042       2.04113

    89    C    5  S      Cor( 1S)     1.99891     -10.09702
    90    C    5  S      Val( 2S)     0.85964      -0.16067
    91    C    5  S      Ryd( 4S)     0.00077       0.84122
    92    C    5  S      Ryd( 3S)     0.00021       0.74970
    93    C    5  S      Ryd( 5S)     0.00001      22.89341
    94    C    5  px     Val( 2p)     0.90152      -0.06738
    95    C    5  px     Ryd( 4p)     0.00532       1.09696
    96    C    5  px     Ryd( 3p)     0.00041       0.53142
    97    C    5  px     Ryd( 5p)     0.00014       3.03480
    98    C    5  py     Val( 2p)     1.07433      -0.07045
    99    C    5  py     Ryd( 4p)     0.00550       0.97886
   100    C    5  py     Ryd( 3p)     0.00087       0.57332
   101    C    5  py     Ryd( 5p)     0.00014       2.95929
   102    C    5  pz     Val( 2p)     0.99603      -0.13054
   103    C    5  pz     Ryd( 4p)     0.00146       0.57144
   104    C    5  pz     Ryd( 3p)     0.00035       0.47902
   105    C    5  pz     Ryd( 5p)     0.00003       2.47246
   106    C    5  dxy    Ryd( 3d)     0.00149       2.57743
   107    C    5  dxz    Ryd( 3d)     0.00099       1.60203
   108    C    5  dyz    Ryd( 3d)     0.00055       1.65406
   109    C    5  dx2y2  Ryd( 3d)     0.00108       2.43754
   110    C    5  dz2    Ryd( 3d)     0.00046       2.02484

   111    C    6  S      Cor( 1S)     1.99892     -10.05578
   112    C    6  S      Val( 2S)     0.96667      -0.19179
   113    C    6  S      Ryd( 3S)     0.00145       0.76851
   114    C    6  S      Ryd( 4S)     0.00020       0.84497
   115    C    6  S      Ryd( 5S)     0.00001      22.96568
   116    C    6  px     Val( 2p)     1.06972      -0.07994
   117    C    6  px     Ryd( 4p)     0.00488       0.89299
   118    C    6  px     Ryd( 3p)     0.00027       0.47751
   119    C    6  px     Ryd( 5p)     0.00018       3.09728
   120    C    6  py     Val( 2p)     1.18428      -0.09496
   121    C    6  py     Ryd( 4p)     0.00509       1.03941
   122    C    6  py     Ryd( 3p)     0.00029       0.39644
   123    C    6  py     Ryd( 5p)     0.00009       3.07300
   124    C    6  pz     Val( 2p)     1.02208      -0.13404
   125    C    6  pz     Ryd( 4p)     0.00106       0.51826
   126    C    6  pz     Ryd( 3p)     0.00029       0.27952
   127    C    6  pz     Ryd( 5p)     0.00002       2.68868
   128    C    6  dxy    Ryd( 3d)     0.00057       2.52996
   129    C    6  dxz    Ryd( 3d)     0.00060       1.64719
   130    C    6  dyz    Ryd( 3d)     0.00057       1.60502
   131    C    6  dx2y2  Ryd( 3d)     0.00083       2.54422
   132    C    6  dz2    Ryd( 3d)     0.00045       2.06763

   133    H    7  S      Val( 1S)     0.76838       0.01885
   134    H    7  S      Ryd( 2S)     0.00088       0.77017
   135    H    7  S      Ryd( 3S)     0.00020       1.93434
   136    H    7  px     Ryd( 2p)     0.00021       2.06184
   137    H    7  py     Ryd( 2p)     0.00038       2.53476
   138    H    7  pz     Ryd( 2p)     0.00018       1.57104

   139    H    8  S      Val( 1S)     0.78198       0.01518
   140    H    8  S      Ryd( 2S)     0.00091       0.76469
   141    H    8  S      Ryd( 3S)     0.00018       1.89395
   142    H    8  px     Ryd( 2p)     0.00023       2.20915
   143    H    8  py     Ryd( 2p)     0.00033       2.41670
   144    H    8  pz     Ryd( 2p)     0.00020       1.57511

   145    H    9  S      Val( 1S)     0.75385       0.02642
   146    H    9  S      Ryd( 2S)     0.00130       0.96796
   147    H    9  S      Ryd( 3S)     0.00017       1.64857
   148    H    9  px     Ryd( 2p)     0.00015       2.09829
   149    H    9  py     Ryd( 2p)     0.00038       2.57239
   150    H    9  pz     Ryd( 2p)     0.00013       1.58847

   151    N   10  S      Cor( 1S)     1.99950     -14.14300
   152    N   10  S      Val( 2S)     1.40249      -0.58344
   153    N   10  S      Ryd( 3S)     0.00058       0.67924
   154    N   10  S      Ryd( 4S)     0.00015       1.16433
   155    N   10  S      Ryd( 5S)     0.00000      35.43749
   156    N   10  px     Val( 2p)     1.26436      -0.20524
   157    N   10  px     Ryd( 3p)     0.00288       0.48890
   158    N   10  px     Ryd( 4p)     0.00048       0.65126
   159    N   10  px     Ryd( 5p)     0.00001       4.11064
   160    N   10  py     Val( 2p)     1.81629      -0.24072
   161    N   10  py     Ryd( 3p)     0.00940       0.49555
   162    N   10  py     Ryd( 4p)     0.00015       0.67281
   163    N   10  py     Ryd( 5p)     0.00002       3.91940
   164    N   10  pz     Val( 2p)     1.34591      -0.19859
   165    N   10  pz     Ryd( 3p)     0.00259       0.45979
   166    N   10  pz     Ryd( 4p)     0.00003       0.60589
   167    N   10  pz     Ryd( 5p)     0.00003       4.14964
   168    N   10  dxy    Ryd( 3d)     0.00087       2.47171
   169    N   10  dxz    Ryd( 3d)     0.00033       2.56215
   170    N   10  dyz    Ryd( 3d)     0.00157       2.67248
   171    N   10  dx2y2  Ryd( 3d)     0.00116       2.59006
   172    N   10  dz2    Ryd( 3d)     0.00057       2.59125

   173    H   11  S      Val( 1S)     0.63472       0.08497
   174    H   11  S      Ryd( 2S)     0.00057       0.80777
   175    H   11  S      Ryd( 3S)     0.00023       2.04431
   176    H   11  px     Ryd( 2p)     0.00044       1.87001
   177    H   11  py     Ryd( 2p)     0.00100       1.78943
   178    H   11  pz     Ryd( 2p)     0.00030       2.36942

   179    H   12  S      Val( 1S)     0.63474       0.08497
   180    H   12  S      Ryd( 2S)     0.00057       0.80807
   181    H   12  S      Ryd( 3S)     0.00023       2.04378
   182    H   12  px     Ryd( 2p)     0.00044       1.86964
   183    H   12  py     Ryd( 2p)     0.00100       1.79193
   184    H   12  pz     Ryd( 2p)     0.00030       2.36681

   185   Cl   13  S      Cor( 1S)     2.00000    -100.24615
   186   Cl   13  S      Cor( 2S)     1.99973     -10.48312
   187   Cl   13  S      Val( 3S)     1.84175      -1.00645
   188   Cl   13  S      Ryd( 4S)     0.00277       0.74026
   189   Cl   13  S      Ryd( 5S)     0.00009       1.13886
   190   Cl   13  S      Ryd( 6S)     0.00000      17.02270
   191   Cl   13  S      Ryd( 7S)     0.00000     207.94865
   192   Cl   13  px     Cor( 2p)     1.99992      -7.23699
   193   Cl   13  px     Val( 3p)     1.22862      -0.27897
   194   Cl   13  px     Ryd( 4p)     0.00363       0.36868
   195   Cl   13  px     Ryd( 5p)     0.00018       0.38925
   196   Cl   13  px     Ryd( 6p)     0.00003       3.95502
   197   Cl   13  px     Ryd( 7p)     0.00000      24.74156
   198   Cl   13  py     Cor( 2p)     1.99999      -7.22863
   199   Cl   13  py     Val( 3p)     1.95848      -0.32825
   200   Cl   13  py     Ryd( 4p)     0.00191       0.41698
   201   Cl   13  py     Ryd( 5p)     0.00016       0.46107
   202   Cl   13  py     Ryd( 6p)     0.00001       3.35036
   203   Cl   13  py     Ryd( 7p)     0.00000      24.73202
   204   Cl   13  pz     Cor( 2p)     1.99999      -7.22893
   205   Cl   13  pz     Val( 3p)     1.92917      -0.32797
   206   Cl   13  pz     Ryd( 4p)     0.00229       0.39531
   207   Cl   13  pz     Ryd( 5p)     0.00015       0.40264
   208   Cl   13  pz     Ryd( 6p)     0.00001       3.13953
   209   Cl   13  pz     Ryd( 7p)     0.00000      24.69434
   210   Cl   13  dxy    Ryd( 3d)     0.00122       1.13234
   211   Cl   13  dxz    Ryd( 3d)     0.00237       0.93082
   212   Cl   13  dyz    Ryd( 3d)     0.00004       0.86168
   213   Cl   13  dx2y2  Ryd( 3d)     0.00414       1.21549
   214   Cl   13  dz2    Ryd( 3d)     0.00140       0.97823

   215    F   14  S      Cor( 1S)     1.99993     -24.44360
   216    F   14  S      Val( 2S)     1.82948      -1.28622
   217    F   14  S      Ryd( 3S)     0.00064       0.89507
   218    F   14  S      Ryd( 4S)     0.00017       1.86030
   219    F   14  S      Ryd( 5S)     0.00000      66.54847
   220    F   14  px     Val( 2p)     1.84300      -0.43569
   221    F   14  px     Ryd( 3p)     0.00145       0.53900
   222    F   14  px     Ryd( 4p)     0.00008       1.37278
   223    F   14  px     Ryd( 5p)     0.00002       6.29593
   224    F   14  py     Val( 2p)     1.73314      -0.44027
   225    F   14  py     Ryd( 3p)     0.00104       0.53558
   226    F   14  py     Ryd( 4p)     0.00015       1.29941
   227    F   14  py     Ryd( 5p)     0.00004       6.32035
   228    F   14  pz     Val( 2p)     1.92277      -0.43164
   229    F   14  pz     Ryd( 3p)     0.00144       0.44995
   230    F   14  pz     Ryd( 4p)     0.00008       1.22695
   231    F   14  pz     Ryd( 5p)     0.00000       6.22693
   232    F   14  dxy    Ryd( 3d)     0.00094       4.17240
   233    F   14  dxz    Ryd( 3d)     0.00020       3.79406
   234    F   14  dyz    Ryd( 3d)     0.00037       3.82294
   235    F   14  dx2y2  Ryd( 3d)     0.00062       3.95900
   236    F   14  dz2    Ryd( 3d)     0.00029       3.90813

 WARNING:  1 low occupancy (<1.9990e) core orbital  found on  C    1
           1 low occupancy (<1.9990e) core orbital  found on  C    2
           1 low occupancy (<1.9990e) core orbital  found on  C    3
           1 low occupancy (<1.9990e) core orbital  found on  C    5
           1 low occupancy (<1.9990e) core orbital  found on  C    6

 WARNING:  Population inversion found on atom  C    1
           Population inversion found on atom  C    2
           Population inversion found on atom  C    3
           Population inversion found on atom  C    4
           Population inversion found on atom  C    5
           Population inversion found on atom  C    6
           Population inversion found on atom  N   10


 Summary of Natural Population Analysis:                  
                                                          
                                       Natural Population 
                Natural  -----------------------------------------------
    Atom  No    Charge         Core      Valence    Rydberg      Total
 -----------------------------------------------------------------------
      C    1    0.39447      1.99826     3.57947    0.02781     5.60553
      C    2   -0.10282      1.99850     4.08154    0.02278     6.10282
      C    3   -0.20657      1.99900     4.18795    0.01962     6.20657
      C    4   -0.22845      1.99900     4.21086    0.01859     6.22845
      C    5    0.14978      1.99891     3.83152    0.01979     5.85022
      C    6   -0.25851      1.99892     4.24274    0.01685     6.25851
      H    7    0.22976      0.00000     0.76838    0.00185     0.77024
      H    8    0.21618      0.00000     0.78198    0.00185     0.78382
      H    9    0.24401      0.00000     0.75385    0.00213     0.75599
      N   10   -0.84938      1.99950     5.82906    0.02083     7.84938
      H   11    0.36273      0.00000     0.63472    0.00256     0.63727
      H   12    0.36271      0.00000     0.63474    0.00255     0.63729
     Cl   13    0.02193      9.99964     6.95802    0.02041    16.97807
      F   14   -0.33584      1.99993     7.32839    0.00753     9.33584
 =======================================================================
   * Total *    0.00000     25.99164    47.82322    0.18514    74.00000

                                 Natural Population      
 --------------------------------------------------------
   Core                      25.99164 ( 99.9679% of  26)
   Valence                   47.82322 ( 99.6317% of  48)
   Natural Minimal Basis     73.81486 ( 99.7498% of  74)
   Natural Rydberg Basis      0.18514 (  0.2502% of  74)
 --------------------------------------------------------

    Atom  No          Natural Electron Configuration
 ----------------------------------------------------------------------------
      C    1      [core]2S( 0.83)2p( 2.75)3d( 0.01)4p( 0.02)
      C    2      [core]2S( 0.94)2p( 3.14)3p( 0.01)3d( 0.01)
      C    3      [core]2S( 0.95)2p( 3.24)4p( 0.01)
      C    4      [core]2S( 0.95)2p( 3.26)4p( 0.01)
      C    5      [core]2S( 0.86)2p( 2.97)4p( 0.01)
      C    6      [core]2S( 0.97)2p( 3.28)4p( 0.01)
      H    7            1S( 0.77)
      H    8            1S( 0.78)
      H    9            1S( 0.75)
      N   10      [core]2S( 1.40)2p( 4.43)3p( 0.01)
      H   11            1S( 0.63)
      H   12            1S( 0.63)
     Cl   13      [core]3S( 1.84)3p( 5.12)3d( 0.01)4p( 0.01)
      F   14      [core]2S( 1.83)2p( 5.50)


 NBO analysis skipped by request.
 Calling FoFJK, ICntrl=      2127 FMM=F ISym2X=0 I1Cent= 0 IOpClX= 0 NMat=1 NMatS=1 NMatT=0.
 ***** Axes restored to original set *****
 -------------------------------------------------------------------
 Center     Atomic                   Forces (Hartrees/Bohr)
 Number     Number              X              Y              Z
 -------------------------------------------------------------------
      1        6           0.005068517    0.004561535    0.000006689
      2        6           0.000119174   -0.006667771    0.000026295
      3        6           0.008319934   -0.001628834   -0.000051127
      4        6           0.006248521   -0.004918277    0.000044822
      5        6           0.004514820    0.017817319    0.000007110
      6        6          -0.011381335    0.003871276   -0.000034432
      7        1          -0.010671081    0.004131278   -0.000016723
      8        1          -0.009059773   -0.005199133   -0.000010126
      9        1           0.009297863   -0.006027054    0.000000247
     10        7          -0.020146588   -0.027324464   -0.000006932
     11        1           0.006651690    0.006249537    0.008928278
     12        1           0.006702598    0.006218490   -0.008899454
     13       17          -0.000349466    0.004867060    0.000017237
     14        9           0.004685127    0.004049039   -0.000011884
 -------------------------------------------------------------------
 Cartesian Forces:  Max     0.027324464 RMS     0.007885718

 GradGradGradGradGradGradGradGradGradGradGradGradGradGradGradGradGradGrad
 Berny optimization.
 FormGI is forming the generalized inverse of G from B-inverse, IUseBI=4.
 Internal  Forces:  Max     0.015027930 RMS     0.004760173
 Search for a local minimum.
 Step number   1 out of a maximum of   73
 All quantities printed in internal units (Hartrees-Bohrs-Radians)
 Mixed Optimization -- RFO/linear search
 Second derivative matrix not updated -- first step.
 ITU=  0
     Eigenvalues ---    0.00766   0.01728   0.02152   0.02153   0.02154
     Eigenvalues ---    0.02155   0.02155   0.02155   0.02156   0.02157
     Eigenvalues ---    0.05453   0.16000   0.16000   0.16000   0.16000
     Eigenvalues ---    0.16000   0.22375   0.23492   0.24610   0.25000
     Eigenvalues ---    0.25000   0.25000   0.29539   0.33718   0.33718
     Eigenvalues ---    0.33726   0.35740   0.42234   0.42552   0.46412
     Eigenvalues ---    0.46453   0.46466   0.46497   0.47688   0.47688
     Eigenvalues ---    0.55021
 RFO step:  Lambda=-4.18595952D-03 EMin= 7.65814437D-03
 Linear search not attempted -- first point.
 Iteration  1 RMS(Cart)=  0.02704830 RMS(Int)=  0.00049426
 Iteration  2 RMS(Cart)=  0.00044239 RMS(Int)=  0.00004086
 Iteration  3 RMS(Cart)=  0.00000037 RMS(Int)=  0.00004086
 Variable       Old X    -DE/DX   Delta X   Delta X   Delta X     New X
                                 (Linear)    (Quad)   (Total)
    R1        2.63647  -0.00343   0.00000  -0.00782  -0.00780   2.62867
    R2        2.63584  -0.00702   0.00000  -0.01537  -0.01535   2.62050
    R3        2.55113  -0.00605   0.00000  -0.01091  -0.01091   2.54022
    R4        2.63562  -0.00421   0.00000  -0.00907  -0.00907   2.62655
    R5        3.32592  -0.00486   0.00000  -0.01621  -0.01621   3.30971
    R6        2.63697  -0.00247   0.00000  -0.00489  -0.00491   2.63207
    R7        2.07809  -0.01126   0.00000  -0.03298  -0.03298   2.04512
    R8        2.63584   0.00375   0.00000   0.00849   0.00847   2.64431
    R9        2.07809  -0.01044   0.00000  -0.03059  -0.03059   2.04750
   R10        2.63643  -0.00454   0.00000  -0.00961  -0.00961   2.62682
   R11        2.77790  -0.01503   0.00000  -0.04156  -0.04156   2.73634
   R12        2.07795  -0.01108   0.00000  -0.03244  -0.03244   2.04551
   R13        1.88973   0.01249   0.00000   0.02596   0.02596   1.91569
   R14        1.88973   0.01248   0.00000   0.02594   0.02594   1.91567
    A1        2.09437   0.00591   0.00000   0.02153   0.02157   2.11594
    A2        2.09441  -0.00126   0.00000  -0.00412  -0.00414   2.09027
    A3        2.09441  -0.00464   0.00000  -0.01741  -0.01743   2.07698
    A4        2.09455  -0.00298   0.00000  -0.01283  -0.01281   2.08173
    A5        2.09432   0.00069   0.00000   0.00328   0.00327   2.09759
    A6        2.09432   0.00228   0.00000   0.00955   0.00954   2.10386
    A7        2.09429  -0.00073   0.00000  -0.00265  -0.00267   2.09162
    A8        2.09462  -0.00177   0.00000  -0.01167  -0.01166   2.08296
    A9        2.09427   0.00250   0.00000   0.01432   0.01433   2.10861
   A10        2.09429   0.00194   0.00000   0.01048   0.01044   2.10473
   A11        2.09407  -0.00123   0.00000  -0.00683  -0.00681   2.08726
   A12        2.09483  -0.00071   0.00000  -0.00365  -0.00363   2.09120
   A13        2.09448  -0.00308   0.00000  -0.01110  -0.01112   2.08336
   A14        2.09459   0.01203   0.00000   0.04683   0.04684   2.14143
   A15        2.09411  -0.00895   0.00000  -0.03573  -0.03572   2.05840
   A16        2.09440  -0.00106   0.00000  -0.00542  -0.00540   2.08899
   A17        2.09453   0.00024   0.00000   0.00095   0.00094   2.09548
   A18        2.09426   0.00082   0.00000   0.00447   0.00446   2.09871
   A19        1.91063   0.00307   0.00000   0.01941   0.01930   1.92993
   A20        1.91063   0.00305   0.00000   0.01927   0.01916   1.92979
   A21        1.91063  -0.00287   0.00000  -0.01610  -0.01631   1.89432
    D1        0.00056  -0.00001   0.00000  -0.00040  -0.00040   0.00016
    D2       -3.14103  -0.00001   0.00000  -0.00026  -0.00026  -3.14129
    D3       -3.14103  -0.00001   0.00000  -0.00055  -0.00056  -3.14158
    D4        0.00056  -0.00001   0.00000  -0.00041  -0.00041   0.00015
    D5        0.00026  -0.00001   0.00000  -0.00050  -0.00050  -0.00024
    D6        3.14140   0.00000   0.00000  -0.00004  -0.00004   3.14137
    D7       -3.14133  -0.00001   0.00000  -0.00035  -0.00035   3.14150
    D8       -0.00019   0.00000   0.00000   0.00011   0.00011  -0.00008
    D9       -0.00099   0.00003   0.00000   0.00105   0.00104   0.00005
   D10        3.14093   0.00001   0.00000   0.00049   0.00049   3.14141
   D11        3.14060   0.00002   0.00000   0.00090   0.00090   3.14150
   D12       -0.00067   0.00001   0.00000   0.00034   0.00035  -0.00032
   D13        0.00060  -0.00002   0.00000  -0.00078  -0.00078  -0.00018
   D14       -3.14153  -0.00001   0.00000  -0.00029  -0.00030   3.14136
   D15       -3.14132  -0.00001   0.00000  -0.00022  -0.00022  -3.14154
   D16       -0.00026   0.00001   0.00000   0.00026   0.00026   0.00000
   D17        0.00023   0.00000   0.00000  -0.00012  -0.00012   0.00010
   D18       -3.14158   0.00001   0.00000   0.00027   0.00028  -3.14130
   D19       -3.14083  -0.00001   0.00000  -0.00060  -0.00061  -3.14144
   D20        0.00054  -0.00001   0.00000  -0.00021  -0.00020   0.00034
   D21       -0.00066   0.00002   0.00000   0.00076   0.00076   0.00010
   D22        3.14138   0.00001   0.00000   0.00031   0.00030  -3.14150
   D23        3.14116   0.00001   0.00000   0.00036   0.00037   3.14152
   D24        0.00001   0.00000   0.00000  -0.00010  -0.00010  -0.00008
   D25       -1.04940  -0.00013   0.00000  -0.00289  -0.00297  -1.05237
   D26        1.04499   0.00010   0.00000   0.00108   0.00116   1.04616
   D27        2.09197  -0.00012   0.00000  -0.00249  -0.00257   2.08940
   D28       -2.09682   0.00011   0.00000   0.00148   0.00157  -2.09525
         Item               Value     Threshold  Converged?
 Maximum Force            0.015028     0.000450     NO 
 RMS     Force            0.004760     0.000300     NO 
 Maximum Displacement     0.078665     0.001800     NO 
 RMS     Displacement     0.027109     0.001200     NO 
 Predicted change in Energy=-2.121088D-03
 GradGradGradGradGradGradGradGradGradGradGradGradGradGradGradGradGradGrad

                          Input orientation:                          
 ---------------------------------------------------------------------
 Center     Atomic      Atomic             Coordinates (Angstroms)
 Number     Number       Type             X           Y           Z
 ---------------------------------------------------------------------
      1          6           0       -1.936344   -1.219759    0.000006
      2          6           0       -0.763920   -1.968354    0.000208
      3          6           0        0.461390   -1.312250   -0.000463
      4          6           0        0.502072    0.079985   -0.001265
      5          6           0       -0.681155    0.827004   -0.001622
      6          6           0       -1.904300    0.166577   -0.001042
      7          1           0        1.374254   -1.893541   -0.000139
      8          1           0        1.459472    0.587271   -0.001566
      9          1           0       -2.828352    0.730313   -0.001394
     10          7           0       -0.691999    2.274969   -0.002805
     11          1           0       -0.224231    2.635448    0.821156
     12          1           0       -0.219450    2.634004   -0.824654
     13         17           0       -0.836501   -3.718271    0.001081
     14          9           0       -3.126753   -1.844154    0.000660
 ---------------------------------------------------------------------
                    Distance matrix (angstroms):
                    1          2          3          4          5
     1  C    0.000000
     2  C    1.391032   0.000000
     3  C    2.399517   1.389913   0.000000
     4  C    2.763188   2.407993   1.392830   0.000000
     5  C    2.400987   2.796583   2.425246   1.399309   0.000000
     6  C    1.386706   2.420413   2.789878   2.407930   1.390053
     7  H    3.378467   2.139483   1.082229   2.157662   3.409702
     8  H    3.846677   3.387433   2.145775   1.083492   2.154010
     9  H    2.144402   3.397747   3.872269   3.393325   2.149373
    10  N    3.709653   4.243934   3.768084   2.498753   1.448007
    11  H    4.297468   4.707464   4.090166   2.781058   2.038680
    12  H    4.298753   4.707286   4.088491   2.778773   2.038578
    13  Cl   2.729875   1.751422   2.733763   4.027224   4.547930
    14  F    1.344226   2.366094   3.627353   4.107394   3.621607
                    6          7          8          9         10
     6  C    0.000000
     7  H    3.872080   0.000000
     8  H    3.389978   2.482275   0.000000
     9  H    1.082437   4.954443   4.290210   0.000000
    10  N    2.432077   4.652514   2.734439   2.636280   0.000000
    11  H    3.097413   4.872516   2.776105   3.329801   1.013737
    12  H    3.099234   4.870151   2.772250   3.332891   1.013728
    13  Cl   4.028926   2.866545   4.879467   4.874154   5.994984
    14  F    2.353175   4.501278   5.190886   2.591704   4.784895
                   11         12         13         14
    11  H    0.000000
    12  H    1.645818   0.000000
    13  Cl   6.435615   6.435370   0.000000
    14  F    5.400433   5.402541   2.959319   0.000000
 Stoichiometry    C6H5ClFN
 Framework group  C1[X(C6H5ClFN)]
 Deg. of freedom    36
 Full point group                 C1      NOp   1
 Largest Abelian subgroup         C1      NOp   1
 Largest concise Abelian subgroup C1      NOp   1
                         Standard orientation:                         
 ---------------------------------------------------------------------
 Center     Atomic      Atomic             Coordinates (Angstroms)
 Number     Number       Type             X           Y           Z
 ---------------------------------------------------------------------
      1          6           0       -0.259807    0.916598    0.000064
      2          6           0       -0.854450   -0.340927    0.000099
      3          6           0       -0.048951   -1.473636    0.000107
      4          6           0        1.337286   -1.338286    0.000139
      5          6           0        1.929003   -0.070241   -0.000056
      6          6           0        1.119489    1.059774   -0.000156
      7          1           0       -0.510385   -2.452563    0.000302
      8          1           0        1.961346   -2.224008    0.000364
      9          1           0        1.562097    2.047584   -0.000392
     10          7           0        3.364023    0.123257   -0.000384
     11          1           0        3.780145   -0.295144    0.823901
     12          1           0        3.780331   -0.300332   -0.821909
     13         17           0       -2.599535   -0.489777   -0.000080
     14          9           0       -1.029446    2.018687    0.000067
 ---------------------------------------------------------------------
 Rotational constants (GHZ):      2.8839471      0.9340235      0.7082242
 Standard basis: 6-311+G(d,p) (5D, 7F)
 There are   245 symmetry adapted cartesian basis functions of A   symmetry.
 There are   236 symmetry adapted basis functions of A   symmetry.
   236 basis functions,   381 primitive gaussians,   245 cartesian basis functions
    37 alpha electrons       37 beta electrons
       nuclear repulsion energy       487.9569525614 Hartrees.
 NAtoms=   14 NActive=   14 NUniq=   14 SFac= 1.00D+00 NAtFMM=   60 NAOKFM=F Big=F
 Integral buffers will be    131072 words long.
 Raffenetti 2 integral format.
 Two-electron integral symmetry is turned on.
 One-electron integrals computed using PRISM.
 NBasis=   236 RedAO= T EigKep=  2.28D-06  NBF=   236
 NBsUse=   236 1.00D-06 EigRej= -1.00D+00 NBFU=   236
 Initial guess from the checkpoint file:  "Traceless4_Smith.chk"
 B after Tr=     0.000000    0.000000    0.000000
         Rot=    0.999990    0.000009    0.000001    0.004403 Ang=   0.50 deg.
 ExpMin= 4.38D-02 ExpMax= 1.06D+05 ExpMxC= 3.62D+03 IAcc=2 IRadAn=         4 AccDes= 0.00D+00
 Harris functional with IExCor=  402 and IRadAn=       4 diagonalized for initial guess.
 HarFok:  IExCor=  402 AccDes= 0.00D+00 IRadAn=         4 IDoV= 1 UseB2=F ITyADJ=14
 ICtDFT=  3500011 ScaDFX=  1.000000  1.000000  1.000000  1.000000
 FoFCou: FMM=F IPFlag=           0 FMFlag=      100000 FMFlg1=           0
         NFxFlg=           0 DoJE=T BraDBF=F KetDBF=T FulRan=T
         wScrn=  0.000000 ICntrl=     500 IOpCl=  0 I1Cent=   200000004 NGrid=           0
         NMat0=    1 NMatS0=      1 NMatT0=    0 NMatD0=    1 NMtDS0=    0 NMtDT0=    0
 Petite list used in FoFCou.
 Keep R1 ints in memory in canonical form, NReq=398711246.
 Requested convergence on RMS density matrix=1.00D-08 within 128 cycles.
 Requested convergence on MAX density matrix=1.00D-06.
 Requested convergence on             energy=1.00D-06.
 No special actions if energy rises.
 SCF Done:  E(RB3LYP) =  -846.565216264     A.U. after   12 cycles
            NFock= 12  Conv=0.59D-08     -V/T= 2.0030
 Calling FoFJK, ICntrl=      2127 FMM=F ISym2X=0 I1Cent= 0 IOpClX= 0 NMat=1 NMatS=1 NMatT=0.
 ***** Axes restored to original set *****
 -------------------------------------------------------------------
 Center     Atomic                   Forces (Hartrees/Bohr)
 Number     Number              X              Y              Z
 -------------------------------------------------------------------
      1        6           0.000794451    0.000644876   -0.000001869
      2        6          -0.001139636   -0.004253311   -0.000005908
      3        6           0.000706366    0.002683758    0.000009126
      4        6          -0.000461046   -0.001879341   -0.000009452
      5        6           0.003411913    0.007000730   -0.000006975
      6        6          -0.002412712   -0.001490570    0.000021524
      7        1           0.000111769   -0.000140717   -0.000005978
      8        1           0.000333970    0.000283329   -0.000003112
      9        1           0.000027556   -0.000241208   -0.000004191
     10        7          -0.002170769   -0.007220634   -0.000013985
     11        1           0.000990867    0.001663267   -0.000298539
     12        1           0.001015849    0.001664174    0.000316039
     13       17          -0.000123089    0.001769840    0.000004862
     14        9          -0.001085489   -0.000484192   -0.000001543
 -------------------------------------------------------------------
 Cartesian Forces:  Max     0.007220634 RMS     0.002011926

 GradGradGradGradGradGradGradGradGradGradGradGradGradGradGradGradGradGrad
 Berny optimization.
 Using GEDIIS/GDIIS optimizer.
 FormGI is forming the generalized inverse of G from B-inverse, IUseBI=4.
 Internal  Forces:  Max     0.003892067 RMS     0.000933468
 Search for a local minimum.
 Step number   2 out of a maximum of   73
 All quantities printed in internal units (Hartrees-Bohrs-Radians)
 Mixed Optimization -- En-DIIS/RFO-DIIS
 Update second derivatives using D2CorX and points    1    2
 DE= -2.30D-03 DEPred=-2.12D-03 R= 1.08D+00
 TightC=F SS=  1.41D+00  RLast= 1.16D-01 DXNew= 5.0454D-01 3.4651D-01
 Trust test= 1.08D+00 RLast= 1.16D-01 DXMaxT set to 3.47D-01
 ITU=  1  0
 Use linear search instead of GDIIS.
     Eigenvalues ---    0.00766   0.01722   0.02152   0.02153   0.02154
     Eigenvalues ---    0.02155   0.02155   0.02155   0.02156   0.02157
     Eigenvalues ---    0.05224   0.14908   0.16000   0.16000   0.16000
     Eigenvalues ---    0.16055   0.22436   0.23000   0.24087   0.24867
     Eigenvalues ---    0.25000   0.25042   0.29163   0.33267   0.33719
     Eigenvalues ---    0.33788   0.35315   0.42423   0.42501   0.46055
     Eigenvalues ---    0.46444   0.46480   0.46764   0.47688   0.49973
     Eigenvalues ---    0.55935
 RFO step:  Lambda=-1.86012036D-04 EMin= 7.65802103D-03
 Quartic linear search produced a step of  0.09661.
 Iteration  1 RMS(Cart)=  0.00488251 RMS(Int)=  0.00004653
 Iteration  2 RMS(Cart)=  0.00003833 RMS(Int)=  0.00001142
 Iteration  3 RMS(Cart)=  0.00000001 RMS(Int)=  0.00001142
 Variable       Old X    -DE/DX   Delta X   Delta X   Delta X     New X
                                 (Linear)    (Quad)   (Total)
    R1        2.62867   0.00021  -0.00075   0.00093   0.00018   2.62885
    R2        2.62050   0.00028  -0.00148   0.00163   0.00015   2.62064
    R3        2.54022   0.00119  -0.00105   0.00296   0.00190   2.54212
    R4        2.62655   0.00206  -0.00088   0.00522   0.00435   2.63090
    R5        3.30971  -0.00176  -0.00157  -0.00563  -0.00720   3.30251
    R6        2.63207  -0.00048  -0.00047  -0.00100  -0.00147   2.63059
    R7        2.04512   0.00017  -0.00319   0.00239  -0.00080   2.04432
    R8        2.64431   0.00012   0.00082  -0.00017   0.00065   2.64496
    R9        2.04750   0.00043  -0.00296   0.00310   0.00014   2.04764
   R10        2.62682   0.00333  -0.00093   0.00851   0.00758   2.63440
   R11        2.73634  -0.00389  -0.00402  -0.00963  -0.01364   2.72270
   R12        2.04551  -0.00015  -0.00313   0.00132  -0.00181   2.04370
   R13        1.91569   0.00081   0.00251   0.00043   0.00294   1.91863
   R14        1.91567   0.00081   0.00251   0.00043   0.00294   1.91861
    A1        2.11594   0.00009   0.00208  -0.00076   0.00133   2.11726
    A2        2.09027   0.00005  -0.00040   0.00043   0.00002   2.09029
    A3        2.07698  -0.00014  -0.00168   0.00033  -0.00135   2.07563
    A4        2.08173  -0.00086  -0.00124  -0.00343  -0.00467   2.07706
    A5        2.09759   0.00010   0.00032   0.00047   0.00078   2.09837
    A6        2.10386   0.00076   0.00092   0.00297   0.00389   2.10775
    A7        2.09162   0.00102  -0.00026   0.00452   0.00426   2.09588
    A8        2.08296  -0.00057  -0.00113  -0.00190  -0.00303   2.07993
    A9        2.10861  -0.00045   0.00138  -0.00262  -0.00123   2.10738
   A10        2.10473   0.00028   0.00101   0.00034   0.00135   2.10608
   A11        2.08726  -0.00004  -0.00066   0.00058  -0.00008   2.08718
   A12        2.09120  -0.00024  -0.00035  -0.00092  -0.00127   2.08993
   A13        2.08336  -0.00111  -0.00107  -0.00415  -0.00523   2.07813
   A14        2.14143   0.00161   0.00453   0.00436   0.00889   2.15032
   A15        2.05840  -0.00050  -0.00345  -0.00021  -0.00366   2.05474
   A16        2.08899   0.00057  -0.00052   0.00349   0.00297   2.09196
   A17        2.09548  -0.00048   0.00009  -0.00298  -0.00289   2.09259
   A18        2.09871  -0.00009   0.00043  -0.00051  -0.00008   2.09863
   A19        1.92993   0.00175   0.00186   0.00991   0.01175   1.94168
   A20        1.92979   0.00175   0.00185   0.00992   0.01174   1.94153
   A21        1.89432  -0.00202  -0.00158  -0.01467  -0.01631   1.87802
    D1        0.00016   0.00000  -0.00004  -0.00002  -0.00005   0.00011
    D2       -3.14129   0.00000  -0.00003  -0.00017  -0.00020  -3.14149
    D3       -3.14158   0.00000  -0.00005   0.00001  -0.00004   3.14156
    D4        0.00015   0.00000  -0.00004  -0.00014  -0.00018  -0.00003
    D5       -0.00024   0.00000  -0.00005   0.00012   0.00007  -0.00017
    D6        3.14137   0.00000   0.00000  -0.00005  -0.00005   3.14131
    D7        3.14150   0.00000  -0.00003   0.00009   0.00006   3.14156
    D8       -0.00008   0.00000   0.00001  -0.00007  -0.00006  -0.00014
    D9        0.00005   0.00000   0.00010  -0.00012  -0.00002   0.00003
   D10        3.14141   0.00000   0.00005   0.00009   0.00014   3.14155
   D11        3.14150   0.00000   0.00009   0.00004   0.00012  -3.14156
   D12       -0.00032   0.00001   0.00003   0.00025   0.00028  -0.00004
   D13       -0.00018   0.00000  -0.00008   0.00015   0.00008  -0.00011
   D14        3.14136   0.00000  -0.00003   0.00013   0.00010   3.14146
   D15       -3.14154   0.00000  -0.00002  -0.00006  -0.00008   3.14156
   D16        0.00000   0.00000   0.00003  -0.00008  -0.00006  -0.00006
   D17        0.00010   0.00000  -0.00001  -0.00005  -0.00006   0.00005
   D18       -3.14130   0.00000   0.00003  -0.00013  -0.00011  -3.14141
   D19       -3.14144   0.00000  -0.00006  -0.00003  -0.00008  -3.14152
   D20        0.00034   0.00000  -0.00002  -0.00011  -0.00013   0.00021
   D21        0.00010   0.00000   0.00007  -0.00009  -0.00001   0.00009
   D22       -3.14150   0.00000   0.00003   0.00008   0.00011  -3.14139
   D23        3.14152   0.00000   0.00004   0.00000   0.00003   3.14155
   D24       -0.00008   0.00000  -0.00001   0.00016   0.00015   0.00007
   D25       -1.05237   0.00011  -0.00029   0.00098   0.00067  -1.05170
   D26        1.04616  -0.00013   0.00011  -0.00443  -0.00429   1.04187
   D27        2.08940   0.00011  -0.00025   0.00089   0.00062   2.09002
   D28       -2.09525  -0.00013   0.00015  -0.00452  -0.00434  -2.09959
         Item               Value     Threshold  Converged?
 Maximum Force            0.003892     0.000450     NO 
 RMS     Force            0.000933     0.000300     NO 
 Maximum Displacement     0.018147     0.001800     NO 
 RMS     Displacement     0.004897     0.001200     NO 
 Predicted change in Energy=-1.125013D-04
 GradGradGradGradGradGradGradGradGradGradGradGradGradGradGradGradGradGrad

                          Input orientation:                          
 ---------------------------------------------------------------------
 Center     Atomic      Atomic             Coordinates (Angstroms)
 Number     Number       Type             X           Y           Z
 ---------------------------------------------------------------------
      1          6           0       -1.935369   -1.221108    0.000078
[...]
 ! Name  Definition              Value          Derivative Info.                !
 --------------------------------------------------------------------------------
 ! R1    R(1,2)                  1.3913         -DE/DX =    0.0                 !
 ! R2    R(1,6)                  1.3841         -DE/DX =    0.0                 !
 ! R3    R(1,14)                 1.3474         -DE/DX =    0.0                 !
 ! R4    R(2,3)                  1.3924         -DE/DX =    0.0                 !
 ! R5    R(2,13)                 1.7483         -DE/DX =    0.0                 !
 ! R6    R(3,4)                  1.3888         -DE/DX =    0.0                 !
 ! R7    R(3,7)                  1.0828         -DE/DX =    0.0                 !
 ! R8    R(4,5)                  1.4041         -DE/DX =    0.0                 !
 ! R9    R(4,8)                  1.0843         -DE/DX =    0.0                 !
 ! R10   R(5,6)                  1.4014         -DE/DX =    0.0                 !
 ! R11   R(5,10)                 1.3923         -DE/DX =    0.0                 !
 ! R12   R(6,9)                  1.0836         -DE/DX =    0.0                 !
 ! R13   R(10,11)                1.0088         -DE/DX =    0.0                 !
 ! R14   R(10,12)                1.0088         -DE/DX =    0.0                 !
 ! A1    A(2,1,6)              122.0048         -DE/DX =    0.0                 !
 ! A2    A(2,1,14)             119.7357         -DE/DX =    0.0                 !
 ! A3    A(6,1,14)             118.2595         -DE/DX =    0.0                 !
 ! A4    A(1,2,3)              118.148          -DE/DX =    0.0                 !
 ! A5    A(1,2,13)             120.6846         -DE/DX =    0.0                 !
 ! A6    A(3,2,13)             121.1673         -DE/DX =    0.0                 !
 ! A7    A(2,3,4)              120.8195         -DE/DX =    0.0                 !
 ! A8    A(2,3,7)              119.068          -DE/DX =    0.0                 !
 ! A9    A(4,3,7)              120.1125         -DE/DX =    0.0                 !
 ! A10   A(3,4,5)              120.6778         -DE/DX =    0.0                 !
 ! A11   A(3,4,8)              119.4901         -DE/DX =    0.0                 !
 ! A12   A(5,4,8)              119.8314         -DE/DX =    0.0                 !
 ! A13   A(4,5,6)              118.5333         -DE/DX =    0.0                 !
 ! A14   A(4,5,10)             120.8883         -DE/DX =    0.0                 !
 ! A15   A(6,5,10)             120.5168         -DE/DX =    0.0                 !
 ! A16   A(1,6,5)              119.8164         -DE/DX =    0.0                 !
 ! A17   A(1,6,9)              118.624          -DE/DX =    0.0                 !
 ! A18   A(5,6,9)              121.5588         -DE/DX =    0.0                 !
 ! A19   A(5,10,11)            116.4143         -DE/DX =    0.0                 !
 ! A20   A(5,10,12)            116.1284         -DE/DX =    0.0                 !
 ! A21   A(11,10,12)           112.7035         -DE/DX =    0.0                 !
 ! D1    D(6,1,2,3)             -0.0008         -DE/DX =    0.0                 !
 ! D2    D(6,1,2,13)           179.9026         -DE/DX =    0.0                 !
 ! D3    D(14,1,2,3)          -179.9434         -DE/DX =    0.0                 !
 ! D4    D(14,1,2,13)           -0.04           -DE/DX =    0.0                 !
 ! D5    D(2,1,6,5)             -0.0782         -DE/DX =    0.0                 !
 ! D6    D(2,1,6,9)            179.6053         -DE/DX =    0.0                 !
 ! D7    D(14,1,6,5)           179.8652         -DE/DX =    0.0                 !
 ! D8    D(14,1,6,9)            -0.4513         -DE/DX =    0.0                 !
 ! D9    D(1,2,3,4)              0.0156         -DE/DX =    0.0                 !
 ! D10   D(1,2,3,7)            179.9734         -DE/DX =    0.0                 !
 ! D11   D(13,2,3,4)          -179.8874         -DE/DX =    0.0                 !
 ! D12   D(13,2,3,7)             0.0705         -DE/DX =    0.0                 !
 ! D13   D(2,3,4,5)              0.049          -DE/DX =    0.0                 !
 ! D14   D(2,3,4,8)           -179.6424         -DE/DX =    0.0                 !
 ! D15   D(7,3,4,5)           -179.9084         -DE/DX =    0.0                 !
 ! D16   D(7,3,4,8)              0.4002         -DE/DX =    0.0                 !
 ! D17   D(3,4,5,6)             -0.126          -DE/DX =    0.0                 !
 ! D18   D(3,4,5,10)          -177.2881         -DE/DX =    0.0                 !
 ! D19   D(8,4,5,6)            179.5644         -DE/DX =    0.0                 !
 ! D20   D(8,4,5,10)             2.4023         -DE/DX =    0.0                 !
 ! D21   D(4,5,6,1)              0.1394         -DE/DX =    0.0                 !
 ! D22   D(4,5,6,9)           -179.5346         -DE/DX =    0.0                 !
 ! D23   D(10,5,6,1)           177.3124         -DE/DX =    0.0                 !
 ! D24   D(10,5,6,9)            -2.3616         -DE/DX =    0.0                 !
 ! D25   D(4,5,10,11)         -159.3495         -DE/DX =    0.0                 !
 ! D26   D(4,5,10,12)          -22.993          -DE/DX =    0.0                 !
 ! D27   D(6,5,10,11)           23.5446         -DE/DX =    0.0                 !
 ! D28   D(6,5,10,12)          159.9011         -DE/DX =    0.0                 !
 --------------------------------------------------------------------------------
 GradGradGradGradGradGradGradGradGradGradGradGradGradGradGradGradGradGrad

 1\1\GINC-COREV2-25-040\Freq\RB3LYP\6-311+G(d,p)\C6H5Cl1F1N1\ROOT\09-Ja
 n-2023\0\\#N Geom=AllCheck Guess=TCheck SCRF=Check GenChk RB3LYP/6-311
 +G(d,p) Freq\\Title Card Required\\0,1\C,-1.9044958141,-1.1875614893,0
 .0992708896\C,-0.7643712031,-1.9797995902,0.0091091007\C,0.4684668699,
 -1.3448528058,-0.1167811612\C,0.5549666385,0.0407870496,-0.1508191679\
 C,-0.6004066902,0.8331750354,-0.0578775806\C,-1.84166625,0.1947851489,
 0.0671713941\H,1.3655221692,-1.947032688,-0.1876826705\H,1.5256068323,
 0.5125867423,-0.2553237847\H,-2.7648632915,0.7581224649,0.1350845967\N
 ,-0.5247689107,2.2205191861,-0.1477218949\H,-1.3005060719,2.7380973872
 ,0.2369790569\H,0.3681061309,2.6322787499,0.0777767305\Cl,-0.883541638
 7,-3.7233902005,0.0558485949\F,-3.1138650606,-1.7684759305,0.223127016
 3\\Version=ES64L-G09RevD.01\State=1-A\HF=-846.5747598\RMSD=3.928e-09\R
 MSF=2.993e-05\ZeroPoint=0.0989699\Thermal=0.1068428\Dipole=0.6834271,1
 .5337957,0.2691131\DipoleDeriv=1.2357337,0.3214117,-0.1103975,0.243717
 3,0.5012971,-0.0304576,-0.1102038,-0.041136,0.1176289,-0.3417254,-0.02
 70239,0.0293628,0.1566798,0.8955647,-0.0288002,0.0259291,-0.0154397,-0
 .0327214,0.1464781,0.0710405,-0.0215955,0.1260143,0.1040469,-0.0182143
 ,-0.0259552,-0.0117236,-0.1063102,0.017084,0.3323258,-0.0403494,-0.085
 6158,-0.473429,0.0172218,-0.0241768,-0.0439981,-0.1610516,0.0916817,0.
 0186652,-0.0073947,0.1150432,1.6977742,-0.0912824,-0.0106252,-0.097770
 6,0.0422365,-0.1030946,-0.2765809,0.0168822,-0.0828031,-0.4568776,0.01
 46261,0.0021281,0.0153795,-0.1640265,0.0178594,0.0557473,0.0095866,0.0
 581551,0.0441656,-0.0044174,0.0094975,-0.0035577,0.1358063,-0.044301,-
 0.0688099,0.0188384,-0.0766192,-0.0057964,0.0087225,0.0188559,0.009453
 3,0.1448375,0.003034,0.0485116,0.0137763,0.0630806,0.0056499,-0.004025
 7,0.0133966,0.0004991,0.1604642,-0.1393188,-0.0262026,-0.0251993,-0.08
 29871,-1.5702513,0.1321101,0.0005199,0.4776714,-0.4752852,0.1247377,-0
 .062701,0.0549738,-0.0400848,0.2058776,-0.0253615,0.0610878,-0.1761209
 ,0.2540156,0.1184583,0.0396676,-0.0312426,0.0465524,0.1986769,-0.02765
 39,-0.0578726,-0.1729828,0.2733486,-0.0568445,-0.0301773,0.0008523,-0.
 0612875,-0.7696239,0.0195847,0.0016958,0.0183246,-0.0529949,-1.0697824
 ,-0.3958741,0.0919066,-0.3798451,-0.3770745,0.0379479,0.095723,0.04140
 15,-0.1359478\Polar=90.4245921,3.7123662,132.1681058,-3.6099414,-1.881
 5258,52.369142\PG=C01 [X(C6H5Cl1F1N1)]\NImag=0\\0.65497338,-0.01455814
 ,0.69166579,-0.04678556,-0.00942871,0.15090823,-0.23469740,0.06318100,
 0.01432549,0.63573222,0.14399383,-0.17661258,-0.01128371,-0.00773498,0
 .53485914,0.01286913,-0.00363796,-0.06619316,-0.04877265,-0.00758488,0
 .11067164,-0.05817702,0.03399289,0.00509516,-0.28486041,-0.10946981,0.
 02297628,0.70216245,-0.02502024,0.06620365,0.00118340,-0.04400190,-0.1
 4812050,0.00586143,-0.04076877,0.69308971,0.00607949,-0.00419147,0.002
 83265,0.02180569,0.01173638,-0.06138640,-0.05210539,-0.00733038,0.1345
 2254,-0.01504717,0.02574897,0.00094115,0.02312627,-0.02942007,-0.00083
 025,-0.12384734,-0.04393680,0.00707521,0.69148900,0.03198936,-0.055010
 66,-0.00196637,-0.08064350,-0.02041188,0.00790002,0.01716918,-0.345421
 81,0.00413150,0.03727530,0.69739163,0.00118950,-0.00199908,-0.00076148
 ,-0.00086518,0.00329801,0.00798115,0.00655709,0.01085798,-0.05555355,-
 0.05519203,-0.01643820,0.12245405,0.03488513,-0.09105176,-0.00240535,-
 0.07570409,0.00744086,0.00671611,0.04328868,0.07244011,-0.00476197,-0.
 25350713,0.04176211,0.01680849,0.67668357,-0.03636069,-0.01832586,0.00
 297396,0.00762776,0.00146132,-0.00044105,0.02660015,-0.03614566,-0.002
 24051,0.10487622,-0.16926694,-0.00886534,0.00533744,0.69769839,-0.0022
 9441,0.00847407,-0.00392246,0.00658886,-0.00093949,-0.00240136,-0.0049
 7613,-0.00566685,0.00316309,0.01706303,-0.00211930,-0.06726074,-0.0478
 1604,-0.00443756,0.16254469,-0.11732056,0.04562475,0.00476763,0.036383
 14,0.01627475,-0.00277503,-0.01937903,-0.02303685,0.00209785,-0.047336
 76,0.02188619,0.00458580,-0.27918091,-0.09651922,0.02019190,0.70814790
 ,-0.02916995,-0.34117414,0.00835617,0.06944098,-0.03151072,-0.00573643
 ,-0.02885760,-0.04303390,0.00338688,-0.01194618,0.05499037,0.00050999,
 -0.03264197,-0.15639822,0.00500616,-0.02700364,0.71350801,0.00587225,0
 .00264095,-0.05865563,-0.00285458,-0.00080426,0.01039363,0.00207215,0.
 00234914,-0.00028339,0.00504239,-0.00261003,0.00581104,0.02023216,0.00
 952966,-0.06439411,-0.05306876,-0.01129983,0.11615156,-0.00199911,-0.0
 0358822,0.00075815,-0.01914433,0.01729374,0.00171514,-0.25287919,0.129
 26202,0.01751217,0.00585747,-0.00298602,-0.00013986,0.00159785,-0.0015
 5180,0.00057848,0.00018782,-0.00069829,-0.00013527,0.26604715,-0.00196
 815,-0.00109575,0.00031340,-0.01355616,0.00937177,0.00114956,0.1314420
 9,-0.14271146,-0.01009426,0.02612261,-0.01179866,-0.00206468,-0.001552
 02,-0.00499391,0.00048787,-0.00075064,-0.00047434,0.00004334,-0.139012
 65,0.14983561,0.00072744,0.00046163,0.00538896,0.00237518,-0.00167684,
 0.00307775,0.01745051,-0.00986217,-0.03695255,-0.00066955,0.00049294,0
 .00371603,0.00046446,0.00034129,0.00687913,-0.00005386,0.00007683,-0.0
 0129944,-0.01953576,0.01040029,0.02620880,0.00014725,0.00130147,-0.000
 09189,0.00218234,0.00038914,0.00047582,0.00159332,0.00108060,-0.000037
 49,-0.28044013,-0.10604282,0.02660302,-0.01867657,-0.01521374,0.002374
 91,-0.00253332,0.00391423,0.00063009,0.00069267,-0.00025315,-0.0005053
 5,0.29627324,0.00088729,-0.00127290,-0.00007638,0.00091847,-0.00375666
 ,0.00014471,-0.02962967,-0.01040871,0.00310485,-0.10619330,-0.10861164
 ,0.01176651,0.01594985,0.00958734,-0.00169395,0.00306631,-0.00140780,-
 0.00010559,0.00022979,0.00099724,-0.00015103,0.11510270,0.11365204,-0.
 00008094,-0.00018280,-0.00049003,0.00040524,0.00013439,0.00663411,0.00
 045367,-0.00000194,0.00160926,0.02696765,0.01210609,-0.03341156,0.0015
 1248,0.00143836,0.00293188,0.00064759,-0.00020397,0.00496581,-0.000480
 89,-0.00007954,-0.00436961,-0.02929887,-0.01286622,0.02518094,0.002389
 31,-0.00227833,0.00025765,0.00125816,-0.00070846,0.00026632,0.00003823
 ,-0.00110751,-0.00007578,-0.00312925,-0.00362257,0.00082003,-0.0167445
 6,0.01737588,0.00143029,-0.25911456,0.12522804,0.01715074,-0.00002713,
 0.00007376,-0.00001186,-0.00090912,0.00080195,0.00008381,0.27320893,0.
 02976037,-0.01231082,-0.00224230,-0.00189747,-0.00386877,0.00035521,-0
 .00088498,-0.00068705,0.00006058,-0.00306312,-0.00076528,0.00044039,-0
 .01224550,0.01075783,0.00091385,0.12360611,-0.13486719,-0.00865933,0.0
 0003926,0.00001562,-0.00000501,-0.00068615,0.00055186,0.00006867,-0.13
 524010,0.13812114,-0.00031913,0.00043488,0.00436604,0.00031715,0.00018
 748,0.00449143,-0.00014410,0.00006034,-0.00124426,0.00083128,0.0004573
 2,0.00501481,0.00233966,-0.00148922,0.00330001,0.01687332,-0.00849119,
 -0.03079297,-0.00000079,-0.00000772,-0.00003423,0.00009471,-0.00006693
 ,0.00006021,-0.01880666,0.00945167,0.02216445,-0.00834860,0.00914317,0
 .00198493,0.00749042,-0.00113067,-0.00080932,-0.00929827,-0.00492261,0
 .00042474,0.00511205,0.04339325,-0.00192250,-0.12224611,-0.01278617,0.
 00935639,-0.00163980,-0.04900024,0.00323928,0.00013115,0.00139681,-0.0
 0000644,0.00174023,0.00055126,0.00031009,0.00172930,-0.00027727,-0.001
 17617,0.78998019,0.00317370,0.00451711,-0.00073021,-0.00097865,-0.0020
 2912,-0.00009142,0.00047786,0.00557223,-0.00042393,0.01121675,-0.04185
 735,0.00135064,-0.00939967,-0.29988811,0.02344767,-0.01578132,-0.03358
 732,0.00361627,0.00010377,-0.00038819,0.00009086,-0.00087946,0.0018795
 0,0.00024875,0.00107601,0.00152074,0.00012851,0.00413942,0.64967196,-0
 .00061073,-0.00218797,0.00477420,-0.00042654,0.00076752,-0.00131526,0.
 00226322,-0.00154816,0.00430601,-0.00383719,-0.00098556,0.00793634,0.0
 0704136,-0.01967546,-0.03856241,0.00505005,0.00664821,0.00662221,-0.00
 008101,-0.00033748,0.00010320,-0.00064344,0.00012180,-0.00280049,-0.00
 025218,0.00024406,-0.00291696,-0.05546645,0.14143817,0.11969194,-0.000
 17968,0.00042120,-0.00084993,-0.00000487,-0.00024972,-0.00006329,0.000
 12984,0.00034687,0.00013429,0.00139124,-0.00176877,0.00064783,0.004733
 84,0.00146644,-0.00232127,0.00109834,-0.00285067,-0.00052080,0.0000336
 0,-0.00003045,-0.00002422,0.00031802,-0.00015010,0.00002990,-0.0003734
 4,0.00018153,0.00066125,-0.29370282,0.14189519,0.11586191,0.30566900,0
 .00001635,-0.00103468,0.00071039,-0.00042417,0.00031811,-0.00009811,0.
 00183461,-0.00010295,0.00024726,-0.00346691,-0.00511657,-0.00015618,0.
 03141187,-0.01823632,-0.01449001,0.00160804,0.00258809,0.00054460,-0.0
 0009262,-0.00043581,0.00003266,0.00009993,0.00013142,-0.00012537,-0.00
 135208,-0.00009243,-0.00044576,0.14072617,-0.15768097,-0.08192430,-0.1
 5726959,0.16884520,0.00048048,-0.00034697,-0.00065422,-0.00077528,-0.0
 0007699,0.00019448,0.00000263,0.00141210,0.00166740,0.00133573,0.00002
 949,0.00184762,-0.00640634,0.01168925,-0.00392196,-0.00097414,-0.00039
 939,-0.00015096,0.00000466,0.00011266,-0.00015571,-0.00000879,-0.00001
 540,-0.00064850,-0.00022198,-0.00036460,0.00042353,0.14507363,-0.10597
 702,-0.06977965,-0.12835409,0.08793424,0.07099885,-0.00007084,-0.00012
 296,0.00022365,0.00021231,0.00021971,0.00003500,-0.00036404,-0.0005918
 4,0.00079968,0.00166139,0.00321488,0.00030305,0.00166657,-0.00201176,-
 0.00060397,0.00156182,0.00095110,-0.00059027,-0.00001675,0.00003895,-0
 .00004212,-0.00036107,-0.00035630,-0.00058992,0.00024368,0.00012773,-0
 .00019569,-0.37031874,-0.13350170,-0.06935655,-0.01891512,-0.01321087,
 -0.00994805,0.38470781,-0.00180286,0.00062989,0.00055695,0.00059408,0.
 00002501,-0.00020551,-0.00005423,-0.00055454,0.00053926,-0.00154640,0.
 00233837,0.00082667,-0.03598815,-0.01407127,-0.00812453,0.00216517,-0.
 00582829,-0.00057294,-0.00000497,0.00005402,-0.00001819,0.00137331,-0.
 00022286,-0.00058137,-0.00009529,0.00012041,-0.00011265,-0.12816523,-0
 .12292209,-0.04404704,0.01834472,0.01039831,0.00639260,0.14502584,0.13
 050157,0.00054616,0.00134385,0.00183064,0.00054550,-0.00026592,-0.0001
 0921,-0.00028488,-0.00005775,-0.00089002,0.00048587,-0.00115811,-0.000
 38968,0.00601153,0.01118555,-0.00519400,-0.00113644,-0.00002582,0.0022
 0544,0.00001548,-0.00001359,0.00002621,0.00040277,-0.00028253,0.000440
 76,-0.00014452,-0.00005098,-0.00071219,-0.10110807,-0.06350727,-0.0280
 0965,0.01459838,0.00783776,0.00028636,0.08011058,0.04532420,0.03068821
 ,0.00218229,0.01998674,-0.00022594,-0.03894494,-0.00872705,0.00211447,
 0.00216348,-0.02867317,0.00061242,-0.00340284,0.00143995,0.00068684,0.
 00124774,-0.00034867,-0.00019130,-0.00366420,-0.00063406,0.00056433,0.
 00130256,-0.00054150,-0.00036371,0.00000239,-0.00094046,0.00004822,0.0
 0019467,0.00084122,0.00002142,0.00010406,-0.00020799,0.00001586,-0.000
 02716,-0.00007379,-0.00000974,-0.00001943,0.00006912,-0.00001321,0.036
 79575,-0.00954586,-0.03831136,0.00171172,-0.00480875,-0.16775332,0.003
 51410,-0.00261490,-0.03277614,0.00093564,-0.00244945,0.00144759,0.0002
 8654,-0.00004468,0.00302826,-0.00055512,0.00389365,0.00068928,-0.00029
 463,0.00050203,0.00122585,-0.00012912,0.00003165,-0.00132481,0.0000153
 6,-0.00041282,-0.00144162,0.00005279,-0.00005700,-0.00430781,0.0014147
 5,-0.00027953,0.00013003,-0.00038266,0.00020908,0.00010448,-0.00042604
 ,0.01388378,0.23512062,0.00036275,-0.00099225,0.00383858,0.00205239,0.
 00387743,-0.01812902,0.00007973,0.00335941,0.00248174,0.00072533,-0.00
 009260,0.00385722,-0.00019560,-0.00011096,-0.00076146,0.00052430,0.000
 11199,0.00273540,-0.00037278,-0.00003255,-0.00265571,0.00004685,0.0001
 1532,0.00044848,0.00002584,-0.00004450,0.00048007,-0.00000416,0.000188
 01,-0.00014742,0.00012288,-0.00001507,-0.00012501,-0.00013784,-0.00000
 885,0.00005428,-0.00275359,-0.00584827,0.01040112,-0.25873698,-0.08780
 079,0.02200485,-0.05302880,-0.02817128,0.00608227,-0.00057071,0.008930
 09,0.00043909,-0.00192681,-0.00306654,-0.00008208,0.00195599,0.0015081
 7,0.00061927,-0.01720987,-0.01673176,0.00236630,-0.00178375,-0.0014095
 0,0.00019530,-0.00002926,-0.00023779,-0.00000803,0.00123578,-0.0002616
 4,-0.00049627,-0.00073305,-0.00133391,0.00044168,-0.00017080,0.0001930
 8,-0.00019873,0.00001239,0.00008488,-0.00002916,0.00206561,0.00169279,
 -0.00047609,0.32892026,-0.09139502,-0.11786768,0.00992170,0.01228329,0
 .00802821,-0.00112967,0.00076318,-0.00490287,0.00013821,-0.00321763,0.
 00209284,0.00018675,0.00858153,-0.00520686,-0.00030279,-0.05503330,-0.
 02349383,0.00562264,0.00050393,0.00039801,-0.00005413,-0.00021772,0.00
 020598,0.00002958,0.00026151,0.00294557,-0.00015953,-0.00301088,-0.000
 50058,0.00007146,-0.00005712,0.00028857,-0.00000732,0.00000814,-0.0005
 7302,0.00009665,0.00392588,0.00416895,-0.00050711,0.12660420,0.1344167
 1,0.02196356,0.00961182,-0.04326232,0.00527872,0.00263089,0.00609024,0
 .00056008,-0.00061655,0.00572750,0.00006138,0.00025280,-0.00124123,0.0
 0045905,0.00010205,0.00759971,0.00326980,0.00206039,0.00669143,0.00016
 227,0.00012271,0.00006718,-0.00004233,0.00000481,-0.00055126,-0.000521
 70,-0.00016770,-0.00459994,0.00010406,0.00022095,0.00009794,0.00007715
 ,-0.00005210,0.00001779,-0.00000755,0.00003140,-0.00022714,-0.00050607
 ,-0.00029506,-0.00247827,-0.03085842,-0.01390643,0.02606837\\-0.000014
 02,0.00005688,-0.00000794,0.00007142,-0.00003762,-0.00001018,-0.000038
 82,-0.00007120,0.00000398,-0.00002429,0.00006418,0.00001233,0.00007412
 ,-0.00005370,0.00000377,-0.00004235,-0.00000781,-0.00000492,-0.0000010
 6,0.00001952,0.00000222,-0.00000392,-0.00000747,-0.00000562,0.00001874
 ,-0.00000511,0.00001071,-0.00001702,0.00002116,-0.00004738,-0.00000391
 ,0.00000896,0.00001935,0.00000014,0.00000517,0.00002280,-0.00000786,0.
 00002080,-0.00000006,-0.00001115,-0.00001375,0.00000094\\\@


 I MET A TRAVELLER FROM AN ANTIQUE LAND
 WHO SAID... TWO VAST AND TRUNKLESS LEGS OF STONE
 STAND IN THE DESERT..... NEAR THEM,  ON THE SAND,
 HALF SUNK,  A SHATTERED VISAGE LIES,  WHOSE FROWN,
 AND WRINKLED LIP,  AND SNEER OF COLD COMMAND
 TELL THAT ITS SCULPTOR WELL THOSE PASSIONS READ
 WHICH YET SURVIVE,  STAMPED ON THESE LIFELESS THINGS
 THE HAND THAT MOCKED THEM,  AND THE HEART THAT FED-
 AND ON THE PEDESTAL THESE WORDS APPEAR 
 MY NAME IS OZYMANDIAS, KING OF KINGS--   
 LOOK ON MY WORKS YE MIGHTY AND DESPAIR. 
 NOTHING BESIDE REMAINS,  ROUND THE DECAY 
 OF THAT COLOSSAL WRECK,  BOUNDLESS AND BARE
 THE LONE AND LEVEL SANDS STRETCH FAR AWAY.
                                    SHELLEY
 Job cpu time:       0 days  0 hours 18 minutes 33.6 seconds.
 File lengths (MBytes):  RWF=    150 Int=      0 D2E=      0 Chk=      5 Scr=      1
 Normal termination of Gaussian 09 at Mon Jan  9 17:54:46 2023.
