	You are loading a legacy vmd module, please load an up to date module instead.


	 module load container_env vmd

	Please run vmd command with crun.vmd prepend to it:
	
	 crun.vmd vmd

	 
module: Command not found.
module: Command not found.
 Entering Gaussian System, Link 0=g09
 Initial command:
 /opt/gaussian/g09/l1.exe "/tmp/G09-49.com.o10577438.tmp/Gau-3715252.inp" -scrdir="/tmp/G09-49.com.o10577438.tmp/"
 Entering Link 1 = /opt/gaussian/g09/l1.exe PID=   3715253.
  
 Copyright (c) 1988,1990,1992,1993,1995,1998,2003,2009,2013,
            Gaussian, Inc.  All Rights Reserved.
  
 This is part of the Gaussian(R) 09 program.  It is based on
 the Gaussian(R) 03 system (copyright 2003, Gaussian, Inc.),
 the Gaussian(R) 98 system (copyright 1998, Gaussian, Inc.),
 the Gaussian(R) 94 system (copyright 1995, Gaussian, Inc.),
 the Gaussian 92(TM) system (copyright 1992, Gaussian, Inc.),
 the Gaussian 90(TM) system (copyright 1990, Gaussian, Inc.),
 the Gaussian 88(TM) system (copyright 1988, Gaussian, Inc.),
 the Gaussian 86(TM) system (copyright 1986, Carnegie Mellon
 University), and the Gaussian 82(TM) system (copyright 1983,
 Carnegie Mellon University). Gaussian is a federally registered
 trademark of Gaussian, Inc.
  
 This software contains proprietary and confidential information,
 including trade secrets, belonging to Gaussian, Inc.
  
 This software is provided under written license and may be
 used, copied, transmitted, or stored only in accord with that
 written license.
  
 The following legend is applicable only to US Government
 contracts under FAR:
  
                    RESTRICTED RIGHTS LEGEND
  
 Use, reproduction and disclosure by the US Government is
 subject to restrictions as set forth in subparagraphs (a)
 and (c) of the Commercial Computer Software - Restricted
 Rights clause in FAR 52.227-19.
  
 Gaussian, Inc.
 340 Quinnipiac St., Bldg. 40, Wallingford CT 06492
  
  
 ---------------------------------------------------------------
 Warning -- This program may not be used in any manner that
 competes with the business of Gaussian, Inc. or will provide
 assistance to any competitor of Gaussian, Inc.  The licensee
 of this program is prohibited from giving any competitor of
 Gaussian, Inc. access to this program.  By using this program,
 the user acknowledges that Gaussian, Inc. is engaged in the
 business of creating and licensing software in the field of
 computational chemistry and represents and warrants to the
 licensee that it is not a competitor of Gaussian, Inc. and that
 it will not use this program in any manner prohibited above.
 ---------------------------------------------------------------
  

 Cite this work as:
 Gaussian 09, Revision D.01,
 M. J. Frisch, G. W. Trucks, H. B. Schlegel, G. E. Scuseria, 
 M. A. Robb, J. R. Cheeseman, G. Scalmani, V. Barone, B. Mennucci, 
 G. A. Petersson, H. Nakatsuji, M. Caricato, X. Li, H. P. Hratchian, 
 A. F. Izmaylov, J. Bloino, G. Zheng, J. L. Sonnenberg, M. Hada, 
 M. Ehara, K. Toyota, R. Fukuda, J. Hasegawa, M. Ishida, T. Nakajima, 
 Y. Honda, O. Kitao, H. Nakai, T. Vreven, J. A. Montgomery, Jr., 
 J. E. Peralta, F. Ogliaro, M. Bearpark, J. J. Heyd, E. Brothers, 
 K. N. Kudin, V. N. Staroverov, T. Keith, R. Kobayashi, J. Normand, 
 K. Raghavachari, A. Rendell, J. C. Burant, S. S. Iyengar, J. Tomasi, 
 M. Cossi, N. Rega, J. M. Millam, M. Klene, J. E. Knox, J. B. Cross, 
 V. Bakken, C. Adamo, J. Jaramillo, R. Gomperts, R. E. Stratmann, 
 O. Yazyev, A. J. Austin, R. Cammi, C. Pomelli, J. W. Ochterski, 
 R. L. Martin, K. Morokuma, V. G. Zakrzewski, G. A. Voth, 
 P. Salvador, J. J. Dannenberg, S. Dapprich, A. D. Daniels, 
 O. Farkas, J. B. Foresman, J. V. Ortiz, J. Cioslowski, 
 and D. J. Fox, Gaussian, Inc., Wallingford CT, 2013.
 
 ******************************************
 Gaussian 09:  ES64L-G09RevD.01 24-Apr-2013
                23-Apr-2024 
 ******************************************
 %nprocshared=20
 Will use up to   20 processors via shared memory.
 %mem=4GB
 %chk=49.chk
 ----------------------------------------------------------------------
 # opt freq=noraman b3lyp/6-311+g(d,p) pop=(npa,hirshfeld,chelpg,mbs) g
 eom=connectivity
 ----------------------------------------------------------------------
 1/14=-1,18=20,19=15,26=3,38=1,57=2/1,3;
 2/9=110,12=2,17=6,18=5,40=1/2;
 3/5=4,6=6,7=111,11=2,16=1,25=1,30=1,71=1,74=-5/1,2,3;
 4//1;
 5/5=2,38=5/2;
 6/7=2,8=2,9=2,10=2,15=8,20=3,27=100,28=1,40=-1,79=1/1,2,7;
 7//1,2,3,16;
 1/14=-1,18=20,19=15,26=3/3(2);
 2/9=110/2;
 99//99;
 2/9=110/2;
 3/5=4,6=6,7=111,11=2,16=1,25=1,30=1,71=1,74=-5/1,2,3;
 4/5=5,16=3,69=1/1;
 5/5=2,38=5/2;
 7//1,2,3,16;
 1/14=-1,18=20,19=15,26=3/3(-5);
 2/9=110/2;
 6/7=2,8=2,9=2,10=2,15=8,19=2,20=3,27=100,28=1,40=-1,79=1/1,2,7;
 99/9=1/99;
 -------------------
 Title Card Required
 -------------------
 Symbolic Z-matrix:
 Charge =  0 Multiplicity = 2
 C                    -5.31324  -4.71547  -0.03017 
 C                    -3.77602  -4.80741  -0.01975 
 H                    -3.46254  -5.44992   0.77637 
 H                    -3.43613  -5.20448  -0.95341 
 H                    -5.62673  -4.07296  -0.82629 
 C                    -5.91008  -6.11974  -0.23853 
 H                    -5.57019  -6.51681  -1.17219 
 H                    -5.59659  -6.76225   0.55759 
 C                    -7.4473   -6.0278   -0.24896 
 H                    -7.78719  -5.63073   0.6847 
 H                    -7.76078  -5.38529  -1.04508 
 C                    -8.04413  -7.43207  -0.45732 
 H                    -7.73065  -8.07457   0.3388 
 C                    -9.58135  -7.34013  -0.46774 
 H                    -9.90994  -6.96727  -1.41532 
 H                    -9.90428  -6.6774    0.30776 
 C                    -10.18087  -8.73866  -0.23049 
 H                    -10.98914  -8.66661   0.46693 
 H                    -10.54312  -9.13325  -1.15676 
 H                    -9.42688  -9.38784   0.16319 
 H                    -7.70424  -7.82914  -1.39097 
 C                    -3.17919  -3.40314   0.18861 
 H                    -3.4285   -2.78215  -0.64632 
 H                    -3.57929  -2.97477   1.08378 
 C                    -1.04819  -2.10183   0.48817 
 H                    -1.29416  -1.49941  -0.36124 
 H                    -1.44946  -1.65239   1.37242 
 C                     0.48279  -2.2084    0.61591 
 H                     0.8839   -2.65929  -0.26767 
 H                     0.72877  -2.80951   1.46624 
 C                     1.08247  -0.80086   0.79151 
 H                     0.83655  -0.19977  -0.05884 
 H                     0.68131  -0.34995   1.67506 
 O                    -1.64767  -3.50917   0.31029 
 C                     2.61345  -0.90744   0.91935 
 H                     3.01458  -1.35857   0.03591 
 H                     2.85937  -1.50833   1.76985 
 C                     3.21316   0.50013   1.0946 
 H                     2.96718   1.10104   0.24414 
 H                     2.81208   0.95124   1.97808 
 C                     4.74414   0.39356   1.22234 
 H                     4.99014  -0.20552   2.07409 
 H                     5.14501  -0.05957   0.3398 
 C                     5.34414   1.8014    1.3944 
 H                     5.09862   2.40031   0.54239 
 H                     4.94284   2.25475   2.27663 
 C                     6.87505   1.69476   1.52296 
 H                     7.27634   1.24138   0.64075 
 H                     7.29193   2.67294   1.64247 
 H                     7.12057   1.09589   2.375 
 

 GradGradGradGradGradGradGradGradGradGradGradGradGradGradGradGradGradGrad
 Berny optimization.
 Initialization pass.
                           ----------------------------
                           !    Initial Parameters    !
                           ! (Angstroms and Degrees)  !
 --------------------------                            --------------------------
 ! Name  Definition              Value          Derivative Info.                !
 --------------------------------------------------------------------------------
 ! R1    R(1,2)                  1.54           estimate D2E/DX2                !
 ! R2    R(1,5)                  1.07           estimate D2E/DX2                !
 ! R3    R(1,6)                  1.54           estimate D2E/DX2                !
 ! R4    R(2,3)                  1.07           estimate D2E/DX2                !
 ! R5    R(2,4)                  1.07           estimate D2E/DX2                !
 ! R6    R(2,22)                 1.54           estimate D2E/DX2                !
 ! R7    R(6,7)                  1.07           estimate D2E/DX2                !
 ! R8    R(6,8)                  1.07           estimate D2E/DX2                !
 ! R9    R(6,9)                  1.54           estimate D2E/DX2                !
 ! R10   R(9,10)                 1.07           estimate D2E/DX2                !
 ! R11   R(9,11)                 1.07           estimate D2E/DX2                !
 ! R12   R(9,12)                 1.54           estimate D2E/DX2                !
 ! R13   R(12,13)                1.07           estimate D2E/DX2                !
 ! R14   R(12,14)                1.54           estimate D2E/DX2                !
 ! R15   R(12,21)                1.07           estimate D2E/DX2                !
 ! R16   R(14,15)                1.07           estimate D2E/DX2                !
 ! R17   R(14,16)                1.07           estimate D2E/DX2                !
 ! R18   R(14,17)                1.54           estimate D2E/DX2                !
 ! R19   R(17,18)                1.07           estimate D2E/DX2                !
 ! R20   R(17,19)                1.07           estimate D2E/DX2                !
 ! R21   R(17,20)                1.07           estimate D2E/DX2                !
 ! R22   R(22,23)                1.07           estimate D2E/DX2                !
 ! R23   R(22,24)                1.07           estimate D2E/DX2                !
 ! R24   R(22,34)                1.54           estimate D2E/DX2                !
 ! R25   R(25,26)                1.07           estimate D2E/DX2                !
 ! R26   R(25,27)                1.07           estimate D2E/DX2                !
 ! R27   R(25,28)                1.54           estimate D2E/DX2                !
 ! R28   R(25,34)                1.54           estimate D2E/DX2                !
 ! R29   R(28,29)                1.07           estimate D2E/DX2                !
 ! R30   R(28,30)                1.07           estimate D2E/DX2                !
 ! R31   R(28,31)                1.54           estimate D2E/DX2                !
 ! R32   R(31,32)                1.07           estimate D2E/DX2                !
 ! R33   R(31,33)                1.07           estimate D2E/DX2                !
 ! R34   R(31,35)                1.54           estimate D2E/DX2                !
 ! R35   R(35,36)                1.07           estimate D2E/DX2                !
 ! R36   R(35,37)                1.07           estimate D2E/DX2                !
 ! R37   R(35,38)                1.54           estimate D2E/DX2                !
 ! R38   R(38,39)                1.07           estimate D2E/DX2                !
 ! R39   R(38,40)                1.07           estimate D2E/DX2                !
 ! R40   R(38,41)                1.54           estimate D2E/DX2                !
 ! R41   R(41,42)                1.07           estimate D2E/DX2                !
 ! R42   R(41,43)                1.07           estimate D2E/DX2                !
 ! R43   R(41,44)                1.54           estimate D2E/DX2                !
 ! R44   R(44,45)                1.07           estimate D2E/DX2                !
 ! R45   R(44,46)                1.07           estimate D2E/DX2                !
 ! R46   R(44,47)                1.54           estimate D2E/DX2                !
 ! R47   R(47,48)                1.07           estimate D2E/DX2                !
 ! R48   R(47,49)                1.07           estimate D2E/DX2                !
 ! R49   R(47,50)                1.07           estimate D2E/DX2                !
 ! A1    A(2,1,5)              109.4712         estimate D2E/DX2                !
 ! A2    A(2,1,6)              109.4712         estimate D2E/DX2                !
 ! A3    A(5,1,6)              109.4712         estimate D2E/DX2                !
 ! A4    A(1,2,3)              109.4712         estimate D2E/DX2                !
 ! A5    A(1,2,4)              109.4712         estimate D2E/DX2                !
 ! A6    A(1,2,22)             109.4712         estimate D2E/DX2                !
 ! A7    A(3,2,4)              109.4712         estimate D2E/DX2                !
 ! A8    A(3,2,22)             109.4712         estimate D2E/DX2                !
 ! A9    A(4,2,22)             109.4712         estimate D2E/DX2                !
 ! A10   A(1,6,7)              109.4712         estimate D2E/DX2                !
 ! A11   A(1,6,8)              109.4712         estimate D2E/DX2                !
 ! A12   A(1,6,9)              109.4712         estimate D2E/DX2                !
 ! A13   A(7,6,8)              109.4712         estimate D2E/DX2                !
 ! A14   A(7,6,9)              109.4712         estimate D2E/DX2                !
 ! A15   A(8,6,9)              109.4712         estimate D2E/DX2                !
 ! A16   A(6,9,10)             109.4712         estimate D2E/DX2                !
 ! A17   A(6,9,11)             109.4712         estimate D2E/DX2                !
 ! A18   A(6,9,12)             109.4712         estimate D2E/DX2                !
 ! A19   A(10,9,11)            109.4712         estimate D2E/DX2                !
 ! A20   A(10,9,12)            109.4712         estimate D2E/DX2                !
 ! A21   A(11,9,12)            109.4712         estimate D2E/DX2                !
 ! A22   A(9,12,13)            109.4712         estimate D2E/DX2                !
 ! A23   A(9,12,14)            109.4712         estimate D2E/DX2                !
 ! A24   A(9,12,21)            109.4712         estimate D2E/DX2                !
 ! A25   A(13,12,14)           109.4712         estimate D2E/DX2                !
 ! A26   A(13,12,21)           109.4712         estimate D2E/DX2                !
 ! A27   A(14,12,21)           109.4712         estimate D2E/DX2                !
 ! A28   A(12,14,15)           109.4712         estimate D2E/DX2                !
 ! A29   A(12,14,16)           109.4712         estimate D2E/DX2                !
 ! A30   A(12,14,17)           109.4712         estimate D2E/DX2                !
 ! A31   A(15,14,16)           109.4712         estimate D2E/DX2                !
 ! A32   A(15,14,17)           109.4713         estimate D2E/DX2                !
 ! A33   A(16,14,17)           109.4712         estimate D2E/DX2                !
 ! A34   A(14,17,18)           109.4712         estimate D2E/DX2                !
 ! A35   A(14,17,19)           109.4712         estimate D2E/DX2                !
 ! A36   A(14,17,20)           109.4712         estimate D2E/DX2                !
 ! A37   A(18,17,19)           109.4713         estimate D2E/DX2                !
 ! A38   A(18,17,20)           109.4712         estimate D2E/DX2                !
 ! A39   A(19,17,20)           109.4712         estimate D2E/DX2                !
 ! A40   A(2,22,23)            109.4712         estimate D2E/DX2                !
 ! A41   A(2,22,24)            109.4712         estimate D2E/DX2                !
 ! A42   A(2,22,34)            109.4712         estimate D2E/DX2                !
 ! A43   A(23,22,24)           109.4712         estimate D2E/DX2                !
 ! A44   A(23,22,34)           109.4713         estimate D2E/DX2                !
 ! A45   A(24,22,34)           109.4712         estimate D2E/DX2                !
 ! A46   A(26,25,27)           109.4712         estimate D2E/DX2                !
 ! A47   A(26,25,28)           109.4713         estimate D2E/DX2                !
 ! A48   A(26,25,34)           109.4712         estimate D2E/DX2                !
 ! A49   A(27,25,28)           109.4712         estimate D2E/DX2                !
 ! A50   A(27,25,34)           109.4712         estimate D2E/DX2                !
 ! A51   A(28,25,34)           109.4712         estimate D2E/DX2                !
 ! A52   A(25,28,29)           109.4712         estimate D2E/DX2                !
 ! A53   A(25,28,30)           109.4712         estimate D2E/DX2                !
 ! A54   A(25,28,31)           109.4712         estimate D2E/DX2                !
 ! A55   A(29,28,30)           109.4712         estimate D2E/DX2                !
 ! A56   A(29,28,31)           109.4713         estimate D2E/DX2                !
 ! A57   A(30,28,31)           109.4712         estimate D2E/DX2                !
 ! A58   A(28,31,32)           109.4712         estimate D2E/DX2                !
 ! A59   A(28,31,33)           109.4712         estimate D2E/DX2                !
 ! A60   A(28,31,35)           109.4712         estimate D2E/DX2                !
 ! A61   A(32,31,33)           109.4712         estimate D2E/DX2                !
 ! A62   A(32,31,35)           109.4713         estimate D2E/DX2                !
 ! A63   A(33,31,35)           109.4712         estimate D2E/DX2                !
 ! A64   A(22,34,25)           109.4712         estimate D2E/DX2                !
 ! A65   A(31,35,36)           109.4712         estimate D2E/DX2                !
 ! A66   A(31,35,37)           109.4712         estimate D2E/DX2                !
 ! A67   A(31,35,38)           109.4712         estimate D2E/DX2                !
 ! A68   A(36,35,37)           109.4712         estimate D2E/DX2                !
 ! A69   A(36,35,38)           109.4713         estimate D2E/DX2                !
 ! A70   A(37,35,38)           109.4712         estimate D2E/DX2                !
 ! A71   A(35,38,39)           109.4712         estimate D2E/DX2                !
 ! A72   A(35,38,40)           109.4712         estimate D2E/DX2                !
 ! A73   A(35,38,41)           109.4712         estimate D2E/DX2                !
 ! A74   A(39,38,40)           109.4712         estimate D2E/DX2                !
 ! A75   A(39,38,41)           109.4713         estimate D2E/DX2                !
 ! A76   A(40,38,41)           109.4712         estimate D2E/DX2                !
 ! A77   A(38,41,42)           109.4712         estimate D2E/DX2                !
 ! A78   A(38,41,43)           109.4712         estimate D2E/DX2                !
 ! A79   A(38,41,44)           109.4712         estimate D2E/DX2                !
 ! A80   A(42,41,43)           109.4712         estimate D2E/DX2                !
 ! A81   A(42,41,44)           109.4713         estimate D2E/DX2                !
 ! A82   A(43,41,44)           109.4712         estimate D2E/DX2                !
 ! A83   A(41,44,45)           109.4712         estimate D2E/DX2                !
 ! A84   A(41,44,46)           109.4712         estimate D2E/DX2                !
 ! A85   A(41,44,47)           109.4712         estimate D2E/DX2                !
 ! A86   A(45,44,46)           109.4712         estimate D2E/DX2                !
 ! A87   A(45,44,47)           109.4713         estimate D2E/DX2                !
 ! A88   A(46,44,47)           109.4712         estimate D2E/DX2                !
 ! A89   A(44,47,48)           109.4712         estimate D2E/DX2                !
 ! A90   A(44,47,49)           109.4712         estimate D2E/DX2                !
 ! A91   A(44,47,50)           109.4712         estimate D2E/DX2                !
 ! A92   A(48,47,49)           109.4713         estimate D2E/DX2                !
 ! A93   A(48,47,50)           109.4712         estimate D2E/DX2                !
 ! A94   A(49,47,50)           109.4712         estimate D2E/DX2                !
 ! D1    D(5,1,2,3)            180.0            estimate D2E/DX2                !
 ! D2    D(5,1,2,4)            -60.0            estimate D2E/DX2                !
 ! D3    D(5,1,2,22)            60.0            estimate D2E/DX2                !
 ! D4    D(6,1,2,3)            -60.0            estimate D2E/DX2                !
 ! D5    D(6,1,2,4)             60.0            estimate D2E/DX2                !
 ! D6    D(6,1,2,22)          -180.0            estimate D2E/DX2                !
 ! D7    D(2,1,6,7)            -60.0            estimate D2E/DX2                !
 ! D8    D(2,1,6,8)             60.0            estimate D2E/DX2                !
 ! D9    D(2,1,6,9)           -180.0            estimate D2E/DX2                !
 ! D10   D(5,1,6,7)             60.0            estimate D2E/DX2                !
 ! D11   D(5,1,6,8)           -180.0            estimate D2E/DX2                !
 ! D12   D(5,1,6,9)            -60.0            estimate D2E/DX2                !
 ! D13   D(1,2,22,23)          -64.4321         estimate D2E/DX2                !
 ! D14   D(1,2,22,24)           55.5679         estimate D2E/DX2                !
 ! D15   D(1,2,22,34)          175.5679         estimate D2E/DX2                !
 ! D16   D(3,2,22,23)          175.5679         estimate D2E/DX2                !
 ! D17   D(3,2,22,24)          -64.4321         estimate D2E/DX2                !
 ! D18   D(3,2,22,34)           55.5679         estimate D2E/DX2                !
 ! D19   D(4,2,22,23)           55.5679         estimate D2E/DX2                !
 ! D20   D(4,2,22,24)          175.5679         estimate D2E/DX2                !
 ! D21   D(4,2,22,34)          -64.4321         estimate D2E/DX2                !
 ! D22   D(1,6,9,10)           -60.0            estimate D2E/DX2                !
 ! D23   D(1,6,9,11)            60.0            estimate D2E/DX2                !
 ! D24   D(1,6,9,12)           180.0            estimate D2E/DX2                !
 ! D25   D(7,6,9,10)           180.0            estimate D2E/DX2                !
 ! D26   D(7,6,9,11)           -60.0            estimate D2E/DX2                !
 ! D27   D(7,6,9,12)            60.0            estimate D2E/DX2                !
 ! D28   D(8,6,9,10)            60.0            estimate D2E/DX2                !
 ! D29   D(8,6,9,11)           180.0            estimate D2E/DX2                !
 ! D30   D(8,6,9,12)           -60.0            estimate D2E/DX2                !
 ! D31   D(6,9,12,13)           60.0            estimate D2E/DX2                !
 ! D32   D(6,9,12,14)          180.0            estimate D2E/DX2                !
 ! D33   D(6,9,12,21)          -60.0            estimate D2E/DX2                !
 ! D34   D(10,9,12,13)         -60.0            estimate D2E/DX2                !
 ! D35   D(10,9,12,14)          60.0            estimate D2E/DX2                !
 ! D36   D(10,9,12,21)         180.0            estimate D2E/DX2                !
 ! D37   D(11,9,12,13)         180.0            estimate D2E/DX2                !
 ! D38   D(11,9,12,14)         -60.0            estimate D2E/DX2                !
 ! D39   D(11,9,12,21)          60.0            estimate D2E/DX2                !
 ! D40   D(9,12,14,15)          77.6561         estimate D2E/DX2                !
 ! D41   D(9,12,14,16)         -42.3439         estimate D2E/DX2                !
 ! D42   D(9,12,14,17)        -162.3438         estimate D2E/DX2                !
 ! D43   D(13,12,14,15)       -162.3439         estimate D2E/DX2                !
 ! D44   D(13,12,14,16)         77.6561         estimate D2E/DX2                !
 ! D45   D(13,12,14,17)        -42.3438         estimate D2E/DX2                !
 ! D46   D(21,12,14,15)        -42.3439         estimate D2E/DX2                !
 ! D47   D(21,12,14,16)       -162.3439         estimate D2E/DX2                !
 ! D48   D(21,12,14,17)         77.6562         estimate D2E/DX2                !
 ! D49   D(12,14,17,18)        136.2899         estimate D2E/DX2                !
 ! D50   D(12,14,17,19)       -103.7101         estimate D2E/DX2                !
 ! D51   D(12,14,17,20)         16.2899         estimate D2E/DX2                !
 ! D52   D(15,14,17,18)       -103.7101         estimate D2E/DX2                !
 ! D53   D(15,14,17,19)         16.2899         estimate D2E/DX2                !
 ! D54   D(15,14,17,20)        136.2899         estimate D2E/DX2                !
 ! D55   D(16,14,17,18)         16.2899         estimate D2E/DX2                !
 ! D56   D(16,14,17,19)        136.2899         estimate D2E/DX2                !
 ! D57   D(16,14,17,20)       -103.7101         estimate D2E/DX2                !
 ! D58   D(2,22,34,25)         178.7867         estimate D2E/DX2                !
 ! D59   D(23,22,34,25)         58.7867         estimate D2E/DX2                !
 ! D60   D(24,22,34,25)        -61.2133         estimate D2E/DX2                !
 ! D61   D(26,25,28,29)        -60.0908         estimate D2E/DX2                !
 ! D62   D(26,25,28,30)        179.9092         estimate D2E/DX2                !
 ! D63   D(26,25,28,31)         59.9092         estimate D2E/DX2                !
 ! D64   D(27,25,28,29)        179.9092         estimate D2E/DX2                !
 ! D65   D(27,25,28,30)         59.9092         estimate D2E/DX2                !
 ! D66   D(27,25,28,31)        -60.0908         estimate D2E/DX2                !
 ! D67   D(34,25,28,29)         59.9092         estimate D2E/DX2                !
 ! D68   D(34,25,28,30)        -60.0908         estimate D2E/DX2                !
 ! D69   D(34,25,28,31)        179.9092         estimate D2E/DX2                !
 ! D70   D(26,25,34,22)        -60.2413         estimate D2E/DX2                !
 ! D71   D(27,25,34,22)         59.7587         estimate D2E/DX2                !
 ! D72   D(28,25,34,22)        179.7587         estimate D2E/DX2                !
 ! D73   D(25,28,31,32)        -60.0037         estimate D2E/DX2                !
 ! D74   D(25,28,31,33)         59.9963         estimate D2E/DX2                !
 ! D75   D(25,28,31,35)        179.9963         estimate D2E/DX2                !
 ! D76   D(29,28,31,32)         59.9963         estimate D2E/DX2                !
 ! D77   D(29,28,31,33)        179.9963         estimate D2E/DX2                !
 ! D78   D(29,28,31,35)        -60.0037         estimate D2E/DX2                !
 ! D79   D(30,28,31,32)        179.9963         estimate D2E/DX2                !
 ! D80   D(30,28,31,33)        -60.0037         estimate D2E/DX2                !
 ! D81   D(30,28,31,35)         59.9963         estimate D2E/DX2                !
 ! D82   D(28,31,35,36)         59.9861         estimate D2E/DX2                !
 ! D83   D(28,31,35,37)        -60.0138         estimate D2E/DX2                !
 ! D84   D(28,31,35,38)        179.9862         estimate D2E/DX2                !
 ! D85   D(32,31,35,36)        -60.0138         estimate D2E/DX2                !
 ! D86   D(32,31,35,37)        179.9862         estimate D2E/DX2                !
 ! D87   D(32,31,35,38)         59.9862         estimate D2E/DX2                !
 ! D88   D(33,31,35,36)        179.9861         estimate D2E/DX2                !
 ! D89   D(33,31,35,37)         59.9862         estimate D2E/DX2                !
 ! D90   D(33,31,35,38)        -60.0138         estimate D2E/DX2                !
 ! D91   D(31,35,38,39)        -59.9962         estimate D2E/DX2                !
 ! D92   D(31,35,38,40)         60.0038         estimate D2E/DX2                !
 ! D93   D(31,35,38,41)       -179.9962         estimate D2E/DX2                !
 ! D94   D(36,35,38,39)         60.0038         estimate D2E/DX2                !
 ! D95   D(36,35,38,40)       -179.9962         estimate D2E/DX2                !
 ! D96   D(36,35,38,41)        -59.9962         estimate D2E/DX2                !
 ! D97   D(37,35,38,39)       -179.9962         estimate D2E/DX2                !
 ! D98   D(37,35,38,40)        -59.9962         estimate D2E/DX2                !
 ! D99   D(37,35,38,41)         60.0038         estimate D2E/DX2                !
 ! D100  D(35,38,41,42)        -60.127          estimate D2E/DX2                !
 ! D101  D(35,38,41,43)         59.873          estimate D2E/DX2                !
 ! D102  D(35,38,41,44)        179.873          estimate D2E/DX2                !
 ! D103  D(39,38,41,42)        179.873          estimate D2E/DX2                !
 ! D104  D(39,38,41,43)        -60.127          estimate D2E/DX2                !
 ! D105  D(39,38,41,44)         59.873          estimate D2E/DX2                !
 ! D106  D(40,38,41,42)         59.873          estimate D2E/DX2                !
 ! D107  D(40,38,41,43)        179.873          estimate D2E/DX2                !
 ! D108  D(40,38,41,44)        -60.127          estimate D2E/DX2                !
 ! D109  D(38,41,44,45)        -60.0327         estimate D2E/DX2                !
 ! D110  D(38,41,44,46)         59.9673         estimate D2E/DX2                !
 ! D111  D(38,41,44,47)        179.9673         estimate D2E/DX2                !
 ! D112  D(42,41,44,45)        179.9673         estimate D2E/DX2                !
 ! D113  D(42,41,44,46)        -60.0327         estimate D2E/DX2                !
 ! D114  D(42,41,44,47)         59.9673         estimate D2E/DX2                !
 ! D115  D(43,41,44,45)         59.9673         estimate D2E/DX2                !
 ! D116  D(43,41,44,46)        179.9673         estimate D2E/DX2                !
 ! D117  D(43,41,44,47)        -60.0327         estimate D2E/DX2                !
 ! D118  D(41,44,47,48)         59.9977         estimate D2E/DX2                !
 ! D119  D(41,44,47,49)        179.9977         estimate D2E/DX2                !
 ! D120  D(41,44,47,50)        -60.0023         estimate D2E/DX2                !
 ! D121  D(45,44,47,48)        -60.0023         estimate D2E/DX2                !
 ! D122  D(45,44,47,49)         59.9977         estimate D2E/DX2                !
 ! D123  D(45,44,47,50)        179.9977         estimate D2E/DX2                !
 ! D124  D(46,44,47,48)        179.9977         estimate D2E/DX2                !
 ! D125  D(46,44,47,49)        -60.0023         estimate D2E/DX2                !
 ! D126  D(46,44,47,50)         59.9977         estimate D2E/DX2                !
 --------------------------------------------------------------------------------
 Trust Radius=3.00D-01 FncErr=1.00D-07 GrdErr=1.00D-06
 Number of steps in this run=    279 maximum allowed number of steps=    300.
 GradGradGradGradGradGradGradGradGradGradGradGradGradGradGradGradGradGrad

                          Input orientation:                          
 ---------------------------------------------------------------------
 Center     Atomic      Atomic             Coordinates (Angstroms)
 Number     Number       Type             X           Y           Z
 ---------------------------------------------------------------------
      1          6           0       -5.313241   -4.715471   -0.030171
      2          6           0       -3.776023   -4.807409   -0.019751
      3          1           0       -3.462535   -5.449915    0.776372
      4          1           0       -3.436130   -5.204476   -0.953405
      5          1           0       -5.626729   -4.072965   -0.826294
      6          6           0       -5.910078   -6.119739   -0.238535
      7          1           0       -5.570185   -6.516806   -1.172189
      8          1           0       -5.596591   -6.762245    0.557588
      9          6           0       -7.447296   -6.027800   -0.248956
     10          1           0       -7.787190   -5.630734    0.684699
     11          1           0       -7.760784   -5.385294   -1.045078
     12          6           0       -8.044134   -7.432069   -0.457319
     13          1           0       -7.730646   -8.074575    0.338804
     14          6           0       -9.581351   -7.340130   -0.467740
     15          1           0       -9.909940   -6.967274   -1.415320
     16          1           0       -9.904284   -6.677397    0.307761
     17          6           0      -10.180866   -8.738664   -0.230494
     18          1           0      -10.989139   -8.666612    0.466932
     19          1           0      -10.543120   -9.133250   -1.156762
     20          1           0       -9.426884   -9.387837    0.163189
     21          1           0       -7.704240   -7.829135   -1.390973
     22          6           0       -3.179186   -3.403141    0.188613
     23          1           0       -3.428505   -2.782150   -0.646319
     24          1           0       -3.579290   -2.974772    1.083776
     25          6           0       -1.048195   -2.101831    0.488171
     26          1           0       -1.294157   -1.499410   -0.361235
     27          1           0       -1.449456   -1.652387    1.372416
     28          6           0        0.482794   -2.208397    0.615913
     29          1           0        0.883898   -2.659287   -0.267667
     30          1           0        0.728769   -2.809513    1.466240
     31          6           0        1.082469   -0.800863    0.791514
     32          1           0        0.836548   -0.199767   -0.058843
     33          1           0        0.681315   -0.349948    1.675059
     34          8           0       -1.647666   -3.509166    0.310287
     35          6           0        2.613449   -0.907437    0.919349
     36          1           0        3.014579   -1.358572    0.035906
     37          1           0        2.859372   -1.508333    1.769846
     38          6           0        3.213156    0.500128    1.094602
     39          1           0        2.967176    1.101044    0.244136
     40          1           0        2.812075    0.951237    1.978081
     41          6           0        4.744144    0.393562    1.222342
     42          1           0        4.990143   -0.205524    2.074094
     43          1           0        5.145006   -0.059566    0.339798
     44          6           0        5.344136    1.801399    1.394401
     45          1           0        5.098620    2.400311    0.542388
     46          1           0        4.942843    2.254750    2.276635
     47          6           0        6.875051    1.694764    1.522964
     48          1           0        7.276341    1.241377    0.640748
     49          1           0        7.291933    2.672940    1.642472
     50          1           0        7.120568    1.095885    2.375001
 ---------------------------------------------------------------------
                    Distance matrix (angstroms):
                    1          2          3          4          5
     1  C    0.000000
     2  C    1.540000   0.000000
     3  H    2.148263   1.070000   0.000000
     4  H    2.148263   1.070000   1.747303   0.000000
     5  H    1.070000   2.148263   3.024610   2.468846   0.000000
     6  C    1.540000   2.514809   2.732978   2.732978   2.148263
     7  H    2.148263   2.732978   3.062243   2.514809   2.468846
     8  H    2.148263   2.732978   2.514809   3.062243   3.024610
     9  C    2.514809   3.875582   4.154945   4.154945   2.732978
    10  H    2.732978   4.154945   4.329403   4.668704   3.062243
    11  H    2.732978   4.154945   4.668704   4.329403   2.514809
    12  C    3.875582   5.029619   5.142175   5.142175   4.154945
    13  H    4.154945   5.142175   5.029619   5.324484   4.668704
    14  C    5.029619   6.349583   6.523851   6.523851   5.142175
    15  H    5.302725   6.651132   6.976741   6.725402   5.202871
    16  H    5.004101   6.415582   6.574377   6.752559   5.134844
    17  C    6.318226   7.518057   7.547556   7.648826   6.547052
    18  H    6.933574   8.195080   8.191010   8.429216   7.178403
    19  H    6.938128   8.111676   8.212104   8.123173   7.063045
    20  H    6.228198   7.276401   7.173331   7.391645   6.608186
    21  H    4.154945   5.142175   5.324484   5.029619   4.329403
    22  C    2.514809   1.540000   2.148263   2.148263   2.732978
    23  H    2.769404   2.148263   3.023604   2.441726   2.555540
    24  H    2.697683   2.148263   2.496890   3.023604   3.007724
    25  C    5.028957   3.875459   4.137846   4.172143   5.155207
    26  H    5.158070   4.149594   4.647850   4.320443   5.060696
    27  H    5.126262   4.159953   4.339237   4.687606   5.305010
    28  C    6.347981   5.029558   5.108699   5.176602   6.548499
    29  H    6.533669   5.137194   5.269641   5.060718   6.685718
    30  H    6.509825   5.147127   5.001468   5.379305   6.873455
    31  C    7.543503   6.349450   6.501614   6.546319   7.637885
    32  H    7.629699   6.519793   6.836941   6.641019   7.573941
    33  H    7.609225   6.527573   6.632405   6.886844   7.740093
    34  O    3.873955   2.514809   2.697683   2.769404   4.176437
    35  C    8.845063   7.544339   7.587631   7.653049   8.998243
    36  H    8.979183   7.616421   7.696778   7.575049   9.098545
    37  H    8.961998   7.623322   7.515955   7.791721   9.237489
    38  C   10.058182   8.846489   8.948136   8.997213  10.136399
    39  H   10.122865   8.969404   9.194539   9.066202  10.088181
    40  H   10.107691   8.975321   9.043760   9.248053  10.213743
    41  C   11.349978  10.059133  10.084380  10.148340  11.476140
    42  H   11.442346  10.119645  10.031725  10.254626  11.665647
    43  H   11.453788  10.112174  10.165443  10.088527  11.554108
    44  C   12.572935  11.351365  11.424579  11.475520  12.641184
    45  H   12.624145  11.446682  11.617839  11.528753  12.601972
    46  H   12.613191  11.452777  11.500567  11.673920  12.703700
    47  C   13.858493  12.573927  12.588469  12.651181  13.967112
    48  H   13.943878  12.616609  12.653666  12.603467  14.031524
    49  H   14.706351  13.461733  13.505165  13.560369  14.781538
    50  H   13.933999  12.622180  12.546123  12.736432  14.122991
                    6          7          8          9         10
     6  C    0.000000
     7  H    1.070000   0.000000
     8  H    1.070000   1.747303   0.000000
     9  C    1.540000   2.148263   2.148263   0.000000
    10  H    2.148263   3.024610   2.468846   1.070000   0.000000
    11  H    2.148263   2.468846   3.024610   1.070000   1.747303
    12  C    2.514809   2.732978   2.732978   1.540000   2.148263
    13  H    2.732978   3.062243   2.514809   2.148263   2.468846
    14  C    3.875582   4.154945   4.154945   2.514809   2.732978
    15  H    4.254648   4.369840   4.747566   2.882296   3.271466
    16  H    4.069779   4.582625   4.315766   2.601672   2.391584
    17  C    5.009836   5.204020   5.053997   3.849873   4.028212
    18  H    5.725478   6.055861   5.719651   4.474424   4.417744
    19  H    5.602630   5.619262   5.747070   4.477953   4.822215
    20  H    4.817651   4.990008   4.660518   3.921540   4.132360
    21  H    2.732978   2.514809   3.062243   2.148263   3.024610
    22  C    3.875582   4.154945   4.154945   5.029619   5.142175
    23  H    4.178995   4.337164   4.689471   5.181006   5.374399
    24  H    4.131815   4.647477   4.323346   5.104765   4.991975
    25  C    6.348984   6.534309   6.512463   7.543546   7.609588
    26  H    6.532169   6.642012   6.859490   7.640684   7.766678
    27  H    6.515332   6.864255   6.631238   7.599156   7.514457
    28  C    7.543042   7.641874   7.596041   8.844329   8.950404
    29  H    7.624546   7.573230   7.714405   8.986436   9.215436
    30  H    7.611712   7.770596   7.513982   8.952504   9.005090
    31  C    8.845743   8.988100   8.955592  10.057850  10.099995
    32  H    8.977490   9.065911   9.210395  10.130359  10.218468
    33  H    8.966537   9.231371   9.043140  10.100206  10.029111
    34  O    5.028365   5.160406   5.122273   6.347596   6.506534
    35  C   10.057799  10.139597  10.090312  11.349082  11.425318
    36  H   10.118970  10.087867  10.179591  11.460091  11.634024
    37  H   10.109497  10.237080  10.028782  11.433659  11.468261
    38  C   11.350476  11.468338  11.429876  12.572360  12.600122
    39  H   11.453311  11.529274  11.630463  12.630313  12.695169
    40  H   11.445001  11.660110  11.498751  12.606402  12.543508
    41  C   12.572578  12.644064  12.592787  13.857483  13.914580
    42  H   12.615111  12.723646  12.544692  13.927863  13.950754
    43  H   12.620422  12.601483  12.663145  13.947492  14.085402
    44  C   13.858870  13.960743  13.918900  15.087006  15.105363
    45  H   13.942473  14.009931  14.083330  15.134705  15.184269
    46  H   13.937146  14.119431  13.976444  15.116044  15.058846
    47  C   15.087375  15.151820  15.099497  16.367875  16.411792
    48  H   15.127486  15.116526  15.158405  16.444391  16.557107
    49  H   15.973180  16.056395  16.009801  17.219909  17.240889
    50  H   15.122617  15.218109  15.059194  16.427255  16.442194
                   11         12         13         14         15
    11  H    0.000000
    12  C    2.148263   0.000000
    13  H    3.024610   1.070000   0.000000
    14  C    2.732978   1.540000   2.148263   0.000000
    15  H    2.694180   2.148263   3.008719   1.070000   0.000000
    16  H    2.845047   2.148263   2.584138   1.070000   1.747303
    17  C    4.214906   2.514809   2.601671   1.540000   2.148263
    18  H    4.845152   3.324364   3.314318   2.148263   2.755956
    19  H    4.669159   3.102930   3.356713   2.148263   2.271392
    20  H    4.500683   2.474279   2.152376   2.148263   2.929873
    21  H    2.468846   1.070000   1.747303   2.148263   2.368229
    22  C    5.142175   6.349583   6.523851   7.544428   7.783231
    23  H    5.069913   6.554502   6.891200   7.659281   7.753427
    24  H    5.275181   6.494405   6.617909   7.582103   7.890670
    25  C    7.628292   8.845820   8.963879  10.058245  10.287193
    26  H    7.575289   8.987094   9.227743  10.139179  10.258672
    27  H    7.720864   8.957813   9.042466  10.092785  10.373007
    28  C    8.989335  10.057189  10.097000  11.348832  11.609553
    29  H    9.097583  10.125471  10.193307  11.466114  11.678305
    30  H    9.220298  10.101086  10.027646  11.426520  11.780174
    31  C   10.128831  11.350214  11.436032  12.572382  12.795616
    32  H   10.088432  11.459994  11.643346  12.636637  12.772086
    33  H   10.199161  11.438397  11.498544  12.600656  12.865229
    34  O    6.536596   7.542757   7.605683   8.844488   9.121480
    35  C   11.468867  12.571798  12.597825  13.857010  14.107005
    36  H   11.553851  12.626392  12.675027  13.953142  14.163573
    37  H   11.650852  12.607036  12.542404  13.920785  14.247830
    38  C   12.635022  13.858383  13.923489  15.086748  15.306124
    39  H   12.602531  13.948297  14.094124  15.140203  15.286323
    40  H   12.691591  13.930839  13.975030  15.110454  15.364493
    41  C   13.961003  15.086478  15.103323  16.367229  16.609677
    42  H   14.111889  15.116989  15.058275  16.422301  16.730503
    43  H   14.029993  15.130849  15.166502  16.447624  16.656778
    44  C   15.143929  16.368615  16.419472  17.601287  17.817716
    45  H   15.116216  16.444059  16.563657  17.646476  17.800032
    46  H   15.191649  16.430779  16.464126  17.622302  17.868447
    47  C   16.459944  17.601213  17.611604  18.878702  19.115448
    48  H   16.518775  17.639483  17.666006  18.948688  19.156660
    49  H   17.284165  18.485542  18.517194  19.733785  19.954654
    50  H   16.587865  17.627144  17.572762  18.926215  19.220282
                   16         17         18         19         20
    16  H    0.000000
    17  C    2.148263   0.000000
    18  H    2.271392   1.070000   0.000000
    19  H    2.929872   1.070000   1.747303   0.000000
    20  H    2.755956   1.070000   1.747303   1.747303   0.000000
    21  H    3.008719   2.882296   3.865714   3.132860   2.795080
    22  C    7.480768   8.812887   9.422152   9.427179   8.651645
    23  H    7.617016   9.013731   9.645175   9.550643   8.959406
    24  H    7.370019   8.861747   9.363941   9.562520   8.727499
    25  C    9.969888  11.312369  11.912983  11.928967  11.108282
    26  H   10.069429  11.462874  12.085004  12.018806  11.342114
    27  H    9.892842  11.358792  11.875386  12.043869  11.177601
    28  C   11.311865  12.532933  13.165712  13.140272  12.245449
    29  H   11.526543  12.624944  13.326538  13.163565  12.319548
    30  H   11.373848  12.532114  13.138250  13.188074  12.170028
    31  C   12.469018  13.817232  14.411769  14.435331  13.585927
    32  H   12.548289  13.940072  14.553720  14.508942  13.777081
    33  H   12.408103  13.855997  14.381445  14.531123  13.643492
    34  O    8.843610  10.022753  10.671781  10.625990   9.751750
    35  C   13.797106  15.044758  15.666521  15.654698  14.746477
    36  H   13.973576  15.121392  15.801815  15.674160  14.807947
    37  H   13.848026  15.044163  15.643523  15.694942  14.684006
    38  C   14.973417  16.325164  16.915326  16.944195  16.075136
    39  H   15.039371  16.429125  17.036299  17.006805  16.236869
    40  H   14.922862  16.358133  16.889645  17.026021  16.123970
    41  C   16.291451  17.557455  18.171230  18.169226  17.251540
    42  H   16.335514  17.558050  18.152422  18.205082  17.199334
    43  H   16.440129  17.621984  18.286827  18.184850  17.302827
    44  C   17.480993  18.835045  19.422032  19.454560  18.571428
    45  H   17.537017  18.924503  19.526865  19.508311  18.710812
    46  H   17.438374  18.864448  19.400495  19.526644  18.614659
    47  C   18.791378  20.070759  20.678555  20.683799  19.759204
    48  H   18.920669  20.127453  20.780429  20.697757  19.804191
    49  H   19.619381  20.953076  21.544487  21.571068  20.668078
    50  H   18.829312  20.071038  20.661766  20.715078  19.713414
                   21         22         23         24         25
    21  H    0.000000
    22  C    6.523851   0.000000
    23  H    6.656462   1.070000   0.000000
    24  H    6.834065   1.070000   1.747303   0.000000
    25  C    8.979762   2.514809   2.723192   2.742848   0.000000
    26  H    9.067246   2.734933   2.506419   3.080030   1.070000
    27  H    9.214709   2.731024   3.044386   2.523531   1.070000
    28  C   10.131526   3.875576   4.149780   4.160138   1.540000
    29  H   10.086886   4.155739   4.330738   4.673968   2.148263
    30  H   10.221347   4.154136   4.663323   4.328160   2.148263
    31  C   11.461506   5.029617   5.132421   5.152019   2.514809
    32  H   11.529392   5.142855   5.020409   5.339087   2.733007
    33  H   11.647160   5.141495   5.309898   5.039055   2.732947
    34  O    7.631416   1.540000   2.148263   2.148263   1.540000
    35  C   12.637334   6.349578   6.516984   6.530768   3.875581
    36  H   12.601479   6.524286   6.633652   6.869443   4.154890
    37  H   12.709572   6.523403   6.855499   6.639089   4.154999
    38  C   13.955080   7.544426   7.610244   7.629703   5.029618
    39  H   14.010739   7.620272   7.535041   7.757158   5.142098
    40  H   14.108096   7.619581   7.731138   7.553998   5.142251
    41  C   15.146104   8.846622   8.964889   8.980225   6.349582
    42  H   15.207679   8.973167   9.214840   9.060058   6.524773
    43  H   15.115056   8.971874   9.049309   9.228503   6.522929
    44  C   16.454958  10.059234  10.106072  10.125998   7.544426
    45  H   16.501294  10.115695  10.049019  10.222071   7.619420
    46  H   16.585681  10.116270  10.197719  10.069636   7.620429
    47  C   17.656484  11.351512  11.441671  11.458216   8.846625
    48  H   17.630085  11.449630  11.508216  11.654051   8.972080
    49  H   18.557494  12.193309  12.244360  12.263453   9.679286
    50  H   17.709136  11.450173  11.638319  11.520611   8.972971
                   26         27         28         29         30
    26  H    0.000000
    27  H    1.747303   0.000000
    28  C    2.148263   2.148263   0.000000
    29  H    2.469412   3.024610   1.070000   0.000000
    30  H    3.024610   2.468280   1.070000   1.747303   0.000000
    31  C    2.732243   2.733713   1.540000   2.148263   2.148263
    32  H    2.514043   3.063400   2.148263   2.468823   3.024610
    33  H    3.061085   2.515577   2.148263   3.024611   2.468869
    34  O    2.148263   2.148263   2.514809   2.732242   2.733713
    35  C    4.154481   4.155409   2.514809   2.733008   2.732947
    36  H    4.329291   4.669068   2.732865   2.514720   3.062027
    37  H    4.668339   4.329516   2.733090   3.062459   2.514898
    38  C    5.141350   5.143000   3.875581   4.154891   4.154998
    39  H    5.028697   5.325509   4.154850   4.329212   4.668668
    40  H    5.323459   5.030541   4.155039   4.668740   4.329594
    41  C    6.523200   6.524501   5.029618   5.142131   5.142218
    42  H    6.862754   6.637334   5.143344   5.325978   5.030860
    43  H    6.635316   6.862238   5.141006   5.028380   5.322990
    44  C    7.618697   7.621156   6.349580   6.523336   6.524361
    45  H    7.542676   7.745361   6.523148   6.634727   6.862315
    46  H    7.742883   7.546179   6.524548   6.862671   6.637915
    47  C    8.971562   8.973490   7.544427   7.619582   7.620270
    48  H    9.053691   9.222188   7.619307   7.543455   7.743503
    49  H    9.754193   9.756704   8.440714   8.552437   8.553564
    50  H    9.221179   9.055578   7.620546   7.744744   7.545400
                   31         32         33         34         35
    31  C    0.000000
    32  H    1.070000   0.000000
    33  H    1.070000   1.747303   0.000000
    34  O    3.875581   4.154479   4.155408   0.000000
    35  C    1.540000   2.148263   2.148263   5.029618   0.000000
    36  H    2.148263   2.468932   3.024610   5.141680   1.070000
    37  H    2.148263   3.024611   2.468760   5.142669   1.070000
    38  C    2.514809   2.732866   2.733089   6.349581   1.540000
    39  H    2.732946   2.514654   3.062365   6.523434   2.148263
    40  H    2.733008   3.062120   2.514964   6.524265   2.148263
    41  C    3.875581   4.154851   4.155038   7.544427   2.514809
    42  H    4.155641   4.669241   4.329675   7.621389   2.734006
    43  H    4.154248   4.329132   4.668167   7.618465   2.731949
    44  C    5.029617   5.141492   5.142856   8.846622   3.875580
    45  H    5.141891   5.028633   5.325360   8.971520   4.154440
    46  H    5.142455   5.323605   5.030603   8.973520   4.155445
    47  C    6.349581   6.523411   6.524290  10.059234   5.029618
    48  H    6.523613   6.636058   6.862688  10.115076   5.141749
    49  H    7.165813   7.267662   7.269057  10.950323   5.935504
    50  H    6.524088   6.862304   6.636590  10.116890   5.142600
                   36         37         38         39         40
    36  H    0.000000
    37  H    1.747303   0.000000
    38  C    2.148263   2.148263   0.000000
    39  H    2.468870   3.024610   1.070000   0.000000
    40  H    3.024611   2.468822   1.070000   1.747303   0.000000
    41  C    2.732947   2.733008   1.540000   2.148263   2.148263
    42  H    3.063753   2.515962   2.148263   3.024609   2.468055
    43  H    2.513660   3.060733   2.148263   2.469638   3.024609
    44  C    4.154246   4.155640   2.514809   2.731949   2.734007
    45  H    4.327696   4.668874   2.733242   2.513981   3.064199
    46  H    4.668529   4.331106   2.732712   3.060286   2.515641
    47  C    5.141736   5.142612   3.875581   4.154443   4.155447
    48  H    5.028735   5.324038   4.155106   4.329653   4.669294
    49  H    6.093430   6.094823   4.653783   4.809337   4.811031
    50  H    5.324928   5.030502   4.154782   4.668112   4.329154
                   41         42         43         44         45
    41  C    0.000000
    42  H    1.070000   0.000000
    43  H    1.070000   1.747303   0.000000
    44  C    1.540000   2.148263   2.148263   0.000000
    45  H    2.148263   3.024610   2.468642   1.070000   0.000000
    46  H    2.148263   2.469050   3.024610   1.070000   1.747303
    47  C    2.514809   2.732713   2.733242   1.540000   2.148263
    48  H    2.732958   3.061814   2.515077   2.148263   2.468860
    49  H    3.444314   3.710807   3.711178   2.148263   2.468832
    50  H    2.732996   2.514542   3.062672   2.148263   3.024611
                   46         47         48         49         50
    46  H    0.000000
    47  C    2.148263   0.000000
    48  H    3.024610   1.070000   0.000000
    49  H    2.468860   1.070000   1.747303   0.000000
    50  H    2.468832   1.070000   1.747303   1.747303   0.000000
 Stoichiometry    C16H33O(2)
 Framework group  C1[X(C16H33O)]
 Deg. of freedom   144
 Full point group                 C1      NOp   1
 Largest Abelian subgroup         C1      NOp   1
 Largest concise Abelian subgroup C1      NOp   1
                         Standard orientation:                         
 ---------------------------------------------------------------------
 Center     Atomic      Atomic             Coordinates (Angstroms)
 Number     Number       Type             X           Y           Z
 ---------------------------------------------------------------------
      1          6           0        3.801766    0.479443    0.025236
      2          6           0        2.544755   -0.396881    0.178795
      3          1           0        2.531225   -1.139264   -0.591649
      4          1           0        2.558618   -0.875911    1.135477
      5          1           0        3.815296    1.221826    0.795680
      6          6           0        5.059255   -0.402154    0.139718
      7          1           0        5.073119   -0.881184    1.096399
      8          1           0        5.045725   -1.144538   -0.630726
      9          6           0        6.316266    0.474170   -0.013842
     10          1           0        6.302403    0.953199   -0.970523
     11          1           0        6.329796    1.216553    0.756602
     12          6           0        7.573756   -0.407427    0.100640
     13          1           0        7.560225   -1.149811   -0.669804
     14          6           0        8.830766    0.468897   -0.052920
     15          1           0        9.012798    0.994723    0.861012
     16          1           0        8.680642    1.172185   -0.845225
     17          6           0       10.041854   -0.423786   -0.381531
     18          1           0       10.618394    0.029836   -1.160460
     19          1           0       10.649170   -0.536762    0.492141
     20          1           0        9.699467   -1.384671   -0.704596
     21          1           0        7.587619   -0.886457    1.057321
     22          6           0        1.287265    0.484716    0.064313
     23          1           0        1.261536    1.176951    0.879818
     24          1           0        1.312143    1.023212   -0.859972
     25          6           0       -1.227191    0.479018    0.022552
     26          1           0       -1.244630    1.154217    0.852433
     27          1           0       -1.211167    1.036540   -0.890581
     28          6           0       -2.483345   -0.411141    0.058533
     29          1           0       -2.498553   -0.969842    0.970959
     30          1           0       -2.466690   -1.085267   -0.772236
     31          6           0       -3.741580    0.473051   -0.023013
     32          1           0       -3.758267    1.147133    0.807791
     33          1           0       -3.726339    1.031800   -0.935409
     34          8           0        0.031002   -0.405020    0.106393
     35          6           0       -4.997732   -0.417114    0.012874
     36          1           0       -5.012848   -0.976043    0.925162
     37          1           0       -4.981164   -1.091033   -0.818065
     38          6           0       -6.255974    0.467101   -0.068322
     39          1           0       -6.272508    1.141064    0.762581
     40          1           0       -6.240890    1.025980   -0.980641
     41          6           0       -7.512128   -0.423058   -0.032339
     42          1           0       -7.496694   -1.095519   -0.864480
     43          1           0       -7.526073   -0.983585    0.878986
     44          6           0       -8.770426    0.461366   -0.110324
     45          1           0       -8.786152    1.133438    0.722126
     46          1           0       -8.756198    1.022319   -1.021383
     47          6           0      -10.026566   -0.428845   -0.075169
     48          1           0      -10.040772   -0.989828    0.835872
     49          1           0      -10.900838    0.185659   -0.129313
     50          1           0      -10.010859   -1.100890   -0.907641
 ---------------------------------------------------------------------
 Rotational constants (GHZ):      4.8726414      0.0544703      0.0541865
 Standard basis: 6-311+G(d,p) (5D, 7F)
 There are   589 symmetry adapted cartesian basis functions of A   symmetry.
 There are   572 symmetry adapted basis functions of A   symmetry.
   572 basis functions,   876 primitive gaussians,   589 cartesian basis functions
    69 alpha electrons       68 beta electrons
       nuclear repulsion energy      1083.6512222668 Hartrees.
 NAtoms=   50 NActive=   50 NUniq=   50 SFac= 1.00D+00 NAtFMM=   60 NAOKFM=F Big=F
 Integral buffers will be    131072 words long.
 Raffenetti 2 integral format.
 Two-electron integral symmetry is turned on.
 One-electron integrals computed using PRISM.
 NBasis=   572 RedAO= T EigKep=  1.68D-06  NBF=   572
 NBsUse=   572 1.00D-06 EigRej= -1.00D+00 NBFU=   572
 ExpMin= 4.38D-02 ExpMax= 8.59D+03 ExpMxC= 1.30D+03 IAcc=2 IRadAn=         4 AccDes= 0.00D+00
 Harris functional with IExCor=  402 and IRadAn=       4 diagonalized for initial guess.
 HarFok:  IExCor=  402 AccDes= 0.00D+00 IRadAn=         4 IDoV= 1 UseB2=F ITyADJ=14
 ICtDFT=  3500011 ScaDFX=  1.000000  1.000000  1.000000  1.000000
 FoFCou: FMM=F IPFlag=           0 FMFlag=      100000 FMFlg1=           0
         NFxFlg=           0 DoJE=T BraDBF=F KetDBF=T FulRan=T
         wScrn=  0.000000 ICntrl=     500 IOpCl=  0 I1Cent=   200000004 NGrid=           0
         NMat0=    1 NMatS0=      1 NMatT0=    0 NMatD0=    1 NMtDS0=    0 NMtDT0=    0
 Petite list used in FoFCou.
 Initial guess <Sx>= 0.0000 <Sy>= 0.0000 <Sz>= 0.5000 <S**2>= 0.7500 S= 0.5000
 Requested convergence on RMS density matrix=1.00D-08 within 128 cycles.
 Requested convergence on MAX density matrix=1.00D-06.
 Requested convergence on             energy=1.00D-06.
 No special actions if energy rises.
 SCF Done:  E(UB3LYP) =  -704.905605500     A.U. after   20 cycles
            NFock= 20  Conv=0.28D-08     -V/T= 2.0038
 <Sx>= 0.0000 <Sy>= 0.0000 <Sz>= 0.5000 <S**2>= 0.7528 S= 0.5014
 <L.S>= 0.000000000000E+00
 Annihilation of the first spin contaminant:
 S**2 before annihilation     0.7528,   after     0.7500

 **********************************************************************

            Population analysis using the SCF density.

 **********************************************************************

 Orbital symmetries:
 Alpha Orbitals:
       Occupied  (A) (A) (A) (A) (A) (A) (A) (A) (A) (A) (A) (A)
                 (A) (A) (A) (A) (A) (A) (A) (A) (A) (A) (A) (A)
                 (A) (A) (A) (A) (A) (A) (A) (A) (A) (A) (A) (A)
                 (A) (A) (A) (A) (A) (A) (A) (A) (A) (A) (A) (A)
                 (A) (A) (A) (A) (A) (A) (A) (A) (A) (A) (A) (A)
                 (A) (A) (A) (A) (A) (A) (A) (A) (A)
       Virtual   (A) (A) (A) (A) (A) (A) (A) (A) (A) (A) (A) (A)
                 (A) (A) (A) (A) (A) (A) (A) (A) (A) (A) (A) (A)
                 (A) (A) (A) (A) (A) (A) (A) (A) (A) (A) (A) (A)
                 (A) (A) (A) (A) (A) (A) (A) (A) (A) (A) (A) (A)
                 (A) (A) (A) (A) (A) (A) (A) (A) (A) (A) (A) (A)
                 (A) (A) (A) (A) (A) (A) (A) (A) (A) (A) (A) (A)
                 (A) (A) (A) (A) (A) (A) (A) (A) (A) (A) (A) (A)
                 (A) (A) (A) (A) (A) (A) (A) (A) (A) (A) (A) (A)
                 (A) (A) (A) (A) (A) (A) (A) (A) (A) (A) (A) (A)
                 (A) (A) (A) (A) (A) (A) (A) (A) (A) (A) (A) (A)
                 (A) (A) (A) (A) (A) (A) (A) (A) (A) (A) (A) (A)
                 (A) (A) (A) (A) (A) (A) (A) (A) (A) (A) (A) (A)
                 (A) (A) (A) (A) (A) (A) (A) (A) (A) (A) (A) (A)
                 (A) (A) (A) (A) (A) (A) (A) (A) (A) (A) (A) (A)
                 (A) (A) (A) (A) (A) (A) (A) (A) (A) (A) (A) (A)
                 (A) (A) (A) (A) (A) (A) (A) (A) (A) (A) (A) (A)
                 (A) (A) (A) (A) (A) (A) (A) (A) (A) (A) (A) (A)
                 (A) (A) (A) (A) (A) (A) (A) (A) (A) (A) (A) (A)
                 (A) (A) (A) (A) (A) (A) (A) (A) (A) (A) (A) (A)
                 (A) (A) (A) (A) (A) (A) (A) (A) (A) (A) (A) (A)
                 (A) (A) (A) (A) (A) (A) (A) (A) (A) (A) (A) (A)
                 (A) (A) (A) (A) (A) (A) (A) (A) (A) (A) (A) (A)
                 (A) (A) (A) (A) (A) (A) (A) (A) (A) (A) (A) (A)
                 (A) (A) (A) (A) (A) (A) (A) (A) (A) (A) (A) (A)
                 (A) (A) (A) (A) (A) (A) (A) (A) (A) (A) (A) (A)
                 (A) (A) (A) (A) (A) (A) (A) (A) (A) (A) (A) (A)
                 (A) (A) (A) (A) (A) (A) (A) (A) (A) (A) (A) (A)
                 (A) (A) (A) (A) (A) (A) (A) (A) (A) (A) (A) (A)
                 (A) (A) (A) (A) (A) (A) (A) (A) (A) (A) (A) (A)
                 (A) (A) (A) (A) (A) (A) (A) (A) (A) (A) (A) (A)
                 (A) (A) (A) (A) (A) (A) (A) (A) (A) (A) (A) (A)
                 (A) (A) (A) (A) (A) (A) (A) (A) (A) (A) (A) (A)
                 (A) (A) (A) (A) (A) (A) (A) (A) (A) (A) (A) (A)
                 (A) (A) (A) (A) (A) (A) (A) (A) (A) (A) (A) (A)
                 (A) (A) (A) (A) (A) (A) (A) (A) (A) (A) (A) (A)
                 (A) (A) (A) (A) (A) (A) (A) (A) (A) (A) (A) (A)
                 (A) (A) (A) (A) (A) (A) (A) (A) (A) (A) (A) (A)
                 (A) (A) (A) (A) (A) (A) (A) (A) (A) (A) (A) (A)
                 (A) (A) (A) (A) (A) (A) (A) (A) (A) (A) (A) (A)
                 (A) (A) (A) (A) (A) (A) (A) (A) (A) (A) (A) (A)
                 (A) (A) (A) (A) (A) (A) (A) (A) (A) (A) (A) (A)
                 (A) (A) (A) (A) (A) (A) (A) (A) (A) (A) (A)
 Beta  Orbitals:
       Occupied  (A) (A) (A) (A) (A) (A) (A) (A) (A) (A) (A) (A)
                 (A) (A) (A) (A) (A) (A) (A) (A) (A) (A) (A) (A)
                 (A) (A) (A) (A) (A) (A) (A) (A) (A) (A) (A) (A)
                 (A) (A) (A) (A) (A) (A) (A) (A) (A) (A) (A) (A)
                 (A) (A) (A) (A) (A) (A) (A) (A) (A) (A) (A) (A)
                 (A) (A) (A) (A) (A) (A) (A) (A)
       Virtual   (A) (A) (A) (A) (A) (A) (A) (A) (A) (A) (A) (A)
                 (A) (A) (A) (A) (A) (A) (A) (A) (A) (A) (A) (A)
                 (A) (A) (A) (A) (A) (A) (A) (A) (A) (A) (A) (A)
                 (A) (A) (A) (A) (A) (A) (A) (A) (A) (A) (A) (A)
                 (A) (A) (A) (A) (A) (A) (A) (A) (A) (A) (A) (A)
                 (A) (A) (A) (A) (A) (A) (A) (A) (A) (A) (A) (A)
                 (A) (A) (A) (A) (A) (A) (A) (A) (A) (A) (A) (A)
                 (A) (A) (A) (A) (A) (A) (A) (A) (A) (A) (A) (A)
                 (A) (A) (A) (A) (A) (A) (A) (A) (A) (A) (A) (A)
                 (A) (A) (A) (A) (A) (A) (A) (A) (A) (A) (A) (A)
                 (A) (A) (A) (A) (A) (A) (A) (A) (A) (A) (A) (A)
                 (A) (A) (A) (A) (A) (A) (A) (A) (A) (A) (A) (A)
                 (A) (A) (A) (A) (A) (A) (A) (A) (A) (A) (A) (A)
                 (A) (A) (A) (A) (A) (A) (A) (A) (A) (A) (A) (A)
                 (A) (A) (A) (A) (A) (A) (A) (A) (A) (A) (A) (A)
                 (A) (A) (A) (A) (A) (A) (A) (A) (A) (A) (A) (A)
                 (A) (A) (A) (A) (A) (A) (A) (A) (A) (A) (A) (A)
                 (A) (A) (A) (A) (A) (A) (A) (A) (A) (A) (A) (A)
                 (A) (A) (A) (A) (A) (A) (A) (A) (A) (A) (A) (A)
                 (A) (A) (A) (A) (A) (A) (A) (A) (A) (A) (A) (A)
                 (A) (A) (A) (A) (A) (A) (A) (A) (A) (A) (A) (A)
                 (A) (A) (A) (A) (A) (A) (A) (A) (A) (A) (A) (A)
                 (A) (A) (A) (A) (A) (A) (A) (A) (A) (A) (A) (A)
                 (A) (A) (A) (A) (A) (A) (A) (A) (A) (A) (A) (A)
                 (A) (A) (A) (A) (A) (A) (A) (A) (A) (A) (A) (A)
                 (A) (A) (A) (A) (A) (A) (A) (A) (A) (A) (A) (A)
                 (A) (A) (A) (A) (A) (A) (A) (A) (A) (A) (A) (A)
                 (A) (A) (A) (A) (A) (A) (A) (A) (A) (A) (A) (A)
                 (A) (A) (A) (A) (A) (A) (A) (A) (A) (A) (A) (A)
                 (A) (A) (A) (A) (A) (A) (A) (A) (A) (A) (A) (A)
                 (A) (A) (A) (A) (A) (A) (A) (A) (A) (A) (A) (A)
                 (A) (A) (A) (A) (A) (A) (A) (A) (A) (A) (A) (A)
                 (A) (A) (A) (A) (A) (A) (A) (A) (A) (A) (A) (A)
                 (A) (A) (A) (A) (A) (A) (A) (A) (A) (A) (A) (A)
                 (A) (A) (A) (A) (A) (A) (A) (A) (A) (A) (A) (A)
                 (A) (A) (A) (A) (A) (A) (A) (A) (A) (A) (A) (A)
                 (A) (A) (A) (A) (A) (A) (A) (A) (A) (A) (A) (A)
                 (A) (A) (A) (A) (A) (A) (A) (A) (A) (A) (A) (A)
                 (A) (A) (A) (A) (A) (A) (A) (A) (A) (A) (A) (A)
                 (A) (A) (A) (A) (A) (A) (A) (A) (A) (A) (A) (A)
                 (A) (A) (A) (A) (A) (A) (A) (A) (A) (A) (A) (A)
                 (A) (A) (A) (A) (A) (A) (A) (A) (A) (A) (A) (A)
 The electronic state is 2-A.
 Alpha  occ. eigenvalues --  -19.11396 -10.20833 -10.20757 -10.18633 -10.16443
 Alpha  occ. eigenvalues --  -10.16244 -10.15927 -10.15744 -10.15585 -10.15536
 Alpha  occ. eigenvalues --  -10.15531 -10.15464 -10.15443 -10.15428 -10.15372
 Alpha  occ. eigenvalues --  -10.14678 -10.14567  -0.96851  -0.81851  -0.81606
 Alpha  occ. eigenvalues --   -0.79460  -0.78819  -0.75613  -0.74460  -0.70317
 Alpha  occ. eigenvalues --   -0.68870  -0.64415  -0.63067  -0.59829  -0.59477
 Alpha  occ. eigenvalues --   -0.58715  -0.58600  -0.58114  -0.57430  -0.49905
 Alpha  occ. eigenvalues --   -0.49332  -0.48256  -0.47297  -0.45723  -0.45279
 Alpha  occ. eigenvalues --   -0.44407  -0.43575  -0.43066  -0.42795  -0.41481
 Alpha  occ. eigenvalues --   -0.40873  -0.40648  -0.40207  -0.39186  -0.37988
 Alpha  occ. eigenvalues --   -0.37021  -0.36699  -0.36615  -0.36158  -0.34980
 Alpha  occ. eigenvalues --   -0.34620  -0.34551  -0.34210  -0.33989  -0.33818
 Alpha  occ. eigenvalues --   -0.33621  -0.33583  -0.33220  -0.33140  -0.31399
 Alpha  occ. eigenvalues --   -0.29424  -0.28455  -0.25542  -0.22926
 Alpha virt. eigenvalues --    0.00686   0.00927   0.01357   0.01888   0.01949
 Alpha virt. eigenvalues --    0.02155   0.02462   0.02712   0.03013   0.03520
 Alpha virt. eigenvalues --    0.03730   0.04125   0.04594   0.04739   0.05185
 Alpha virt. eigenvalues --    0.05463   0.05772   0.06153   0.06329   0.06519
 Alpha virt. eigenvalues --    0.06621   0.06915   0.07205   0.07414   0.07877
 Alpha virt. eigenvalues --    0.08087   0.08173   0.08466   0.08906   0.09564
 Alpha virt. eigenvalues --    0.09982   0.10378   0.10570   0.11049   0.11419
 Alpha virt. eigenvalues --    0.11998   0.12036   0.12283   0.12527   0.13017
 Alpha virt. eigenvalues --    0.13443   0.14068   0.14605   0.15065   0.15488
 Alpha virt. eigenvalues --    0.15716   0.16020   0.16452   0.16676   0.17055
 Alpha virt. eigenvalues --    0.17273   0.17519   0.18012   0.18585   0.18708
 Alpha virt. eigenvalues --    0.19030   0.19369   0.19701   0.19890   0.20020
 Alpha virt. eigenvalues --    0.20329   0.20610   0.20813   0.21015   0.21286
 Alpha virt. eigenvalues --    0.21359   0.21635   0.21852   0.22225   0.22417
 Alpha virt. eigenvalues --    0.22589   0.22906   0.23030   0.23385   0.23522
 Alpha virt. eigenvalues --    0.24224   0.24314   0.24583   0.24634   0.24873
 Alpha virt. eigenvalues --    0.25003   0.25098   0.25527   0.25581   0.25812
 Alpha virt. eigenvalues --    0.25966   0.26196   0.26496   0.26754   0.26976
 Alpha virt. eigenvalues --    0.27726   0.28050   0.28818   0.29106   0.29479
 Alpha virt. eigenvalues --    0.30281   0.30692   0.30827   0.31044   0.31443
 Alpha virt. eigenvalues --    0.31820   0.32295   0.32769   0.33315   0.34050
 Alpha virt. eigenvalues --    0.34157   0.34900   0.35189   0.36026   0.36435
 Alpha virt. eigenvalues --    0.37337   0.38020   0.39851   0.40045   0.40368
 Alpha virt. eigenvalues --    0.40501   0.40911   0.41431   0.41844   0.42685
 Alpha virt. eigenvalues --    0.42748   0.43057   0.43634   0.44219   0.44865
 Alpha virt. eigenvalues --    0.45995   0.46817   0.47363   0.48109   0.49494
 Alpha virt. eigenvalues --    0.50149   0.50850   0.51708   0.52531   0.53744
 Alpha virt. eigenvalues --    0.54082   0.54430   0.56056   0.56319   0.57750
 Alpha virt. eigenvalues --    0.58099   0.58699   0.59675   0.60367   0.60830
 Alpha virt. eigenvalues --    0.60862   0.62159   0.62813   0.63154   0.63182
 Alpha virt. eigenvalues --    0.63627   0.64114   0.64472   0.64705   0.65087
 Alpha virt. eigenvalues --    0.65298   0.65628   0.65724   0.66088   0.66968
 Alpha virt. eigenvalues --    0.67194   0.67525   0.67739   0.68032   0.68352
 Alpha virt. eigenvalues --    0.68572   0.68881   0.69041   0.69363   0.69490
 Alpha virt. eigenvalues --    0.69535   0.69860   0.70342   0.70690   0.70880
 Alpha virt. eigenvalues --    0.71405   0.71706   0.72725   0.73114   0.73380
 Alpha virt. eigenvalues --    0.74435   0.75352   0.75728   0.75778   0.76542
 Alpha virt. eigenvalues --    0.76899   0.77317   0.77601   0.78180   0.78352
 Alpha virt. eigenvalues --    0.78711   0.79032   0.79860   0.80901   0.81364
 Alpha virt. eigenvalues --    0.82040   0.84259   0.85057   0.87321   0.92164
 Alpha virt. eigenvalues --    0.93177   0.95041   0.95654   0.96878   0.97631
 Alpha virt. eigenvalues --    0.98556   0.98794   1.00171   1.00711   1.01398
 Alpha virt. eigenvalues --    1.01752   1.02290   1.02898   1.04083   1.06879
 Alpha virt. eigenvalues --    1.08531   1.09942   1.10925   1.12330   1.12623
 Alpha virt. eigenvalues --    1.17905   1.19223   1.19994   1.21287   1.22236
 Alpha virt. eigenvalues --    1.23364   1.24006   1.24848   1.25929   1.26379
 Alpha virt. eigenvalues --    1.26603   1.27484   1.27582   1.27941   1.28185
 Alpha virt. eigenvalues --    1.28396   1.28645   1.30243   1.32702   1.35097
 Alpha virt. eigenvalues --    1.37301   1.41673   1.44339   1.46577   1.46671
 Alpha virt. eigenvalues --    1.46757   1.47690   1.48422   1.49003   1.49821
 Alpha virt. eigenvalues --    1.51239   1.51828   1.52266   1.53141   1.53603
 Alpha virt. eigenvalues --    1.54425   1.54664   1.55061   1.55634   1.55838
 Alpha virt. eigenvalues --    1.56316   1.56747   1.57475   1.57796   1.58119
 Alpha virt. eigenvalues --    1.58466   1.59633   1.60188   1.60586   1.61044
 Alpha virt. eigenvalues --    1.61632   1.62098   1.62574   1.63373   1.63698
 Alpha virt. eigenvalues --    1.64257   1.65507   1.66149   1.66850   1.67456
 Alpha virt. eigenvalues --    1.67542   1.67751   1.68098   1.68963   1.69439
 Alpha virt. eigenvalues --    1.71061   1.71389   1.71615   1.72626   1.73131
 Alpha virt. eigenvalues --    1.73624   1.74407   1.74909   1.75401   1.75554
 Alpha virt. eigenvalues --    1.75702   1.76625   1.78203   1.78702   1.78833
 Alpha virt. eigenvalues --    1.79798   1.80224   1.81572   1.82128   1.84223
 Alpha virt. eigenvalues --    1.84431   1.85403   1.87028   1.87599   1.87924
 Alpha virt. eigenvalues --    1.89068   1.90610   1.92249   1.92537   1.93038
 Alpha virt. eigenvalues --    1.95026   1.97007   1.99510   2.00523   2.01101
 Alpha virt. eigenvalues --    2.01712   2.04114   2.04566   2.05951   2.07430
 Alpha virt. eigenvalues --    2.08198   2.09130   2.10930   2.11752   2.13734
 Alpha virt. eigenvalues --    2.14418   2.16012   2.17021   2.17528   2.18148
 Alpha virt. eigenvalues --    2.19274   2.19832   2.21043   2.22010   2.23013
 Alpha virt. eigenvalues --    2.23854   2.23909   2.24287   2.25719   2.28251
 Alpha virt. eigenvalues --    2.29572   2.30725   2.30920   2.31473   2.32052
 Alpha virt. eigenvalues --    2.35207   2.36956   2.37356   2.38446   2.38687
 Alpha virt. eigenvalues --    2.38929   2.40417   2.41212   2.41880   2.43345
 Alpha virt. eigenvalues --    2.43408   2.44040   2.44535   2.45530   2.47959
 Alpha virt. eigenvalues --    2.49009   2.49662   2.51127   2.51161   2.51869
 Alpha virt. eigenvalues --    2.52468   2.52733   2.53669   2.54264   2.55020
 Alpha virt. eigenvalues --    2.55506   2.57064   2.57284   2.57557   2.58390
 Alpha virt. eigenvalues --    2.59197   2.59255   2.59853   2.60052   2.61558
 Alpha virt. eigenvalues --    2.61803   2.62153   2.62418   2.62953   2.63873
 Alpha virt. eigenvalues --    2.64368   2.64708   2.65087   2.66001   2.66070
 Alpha virt. eigenvalues --    2.66561   2.68222   2.68600   2.68843   2.69570
 Alpha virt. eigenvalues --    2.69831   2.70205   2.71748   2.72382   2.72536
 Alpha virt. eigenvalues --    2.73035   2.73577   2.75198   2.75843   2.75887
 Alpha virt. eigenvalues --    2.78675   2.80169   2.80437   2.80986   2.81896
 Alpha virt. eigenvalues --    2.83200   2.83413   2.84055   2.84426   2.86420
 Alpha virt. eigenvalues --    2.87442   2.88771   2.90131   2.90349   2.92229
 Alpha virt. eigenvalues --    2.92508   2.92739   2.93870   2.94607   2.95943
 Alpha virt. eigenvalues --    2.96077   2.97973   2.99352   3.01404   3.04254
 Alpha virt. eigenvalues --    3.05789   3.06620   3.08813   3.10926   3.13767
 Alpha virt. eigenvalues --    3.14598   3.15812   3.20088   3.21743   3.28469
 Alpha virt. eigenvalues --    3.32629   3.38414   3.39739   3.44056   3.44773
 Alpha virt. eigenvalues --    3.70145   3.82846   3.83241   3.84562   3.84947
 Alpha virt. eigenvalues --    3.85278   3.86734   3.87440   3.87916   3.89016
 Alpha virt. eigenvalues --    3.89923   3.90242   3.91457   3.92126   3.92802
 Alpha virt. eigenvalues --    3.94630   3.97304   4.00796   4.05075   4.06012
 Alpha virt. eigenvalues --    4.12411   4.14232   4.15832   4.17931   4.19497
 Alpha virt. eigenvalues --    4.22976   4.23735   4.25311   4.28215   4.31547
 Alpha virt. eigenvalues --    4.32409   4.33595   4.35687   5.06803   5.29707
 Alpha virt. eigenvalues --    5.51314  23.78540  23.88581  23.89236  23.90959
 Alpha virt. eigenvalues --   23.90987  23.92375  23.92769  23.93657  23.94185
 Alpha virt. eigenvalues --   23.95862  23.96676  23.96923  23.97256  23.97772
 Alpha virt. eigenvalues --   24.02966  24.03894  49.93870
  Beta  occ. eigenvalues --  -19.11391 -10.20815 -10.20758 -10.17179 -10.16458
  Beta  occ. eigenvalues --  -10.16265 -10.15927 -10.15744 -10.15585 -10.15536
  Beta  occ. eigenvalues --  -10.15513 -10.15464 -10.15443 -10.15428 -10.15372
  Beta  occ. eigenvalues --  -10.14678 -10.14567  -0.96839  -0.81690  -0.81295
  Beta  occ. eigenvalues --   -0.79296  -0.78372  -0.75559  -0.74377  -0.70073
  Beta  occ. eigenvalues --   -0.68734  -0.64247  -0.62837  -0.59737  -0.59440
  Beta  occ. eigenvalues --   -0.58703  -0.58519  -0.58090  -0.56010  -0.49885
  Beta  occ. eigenvalues --   -0.48971  -0.48203  -0.46986  -0.45621  -0.45030
  Beta  occ. eigenvalues --   -0.44338  -0.43476  -0.42994  -0.42660  -0.41323
  Beta  occ. eigenvalues --   -0.40802  -0.40497  -0.39937  -0.38963  -0.37839
  Beta  occ. eigenvalues --   -0.36830  -0.36556  -0.36473  -0.36043  -0.34841
  Beta  occ. eigenvalues --   -0.34536  -0.34284  -0.34137  -0.33917  -0.33814
  Beta  occ. eigenvalues --   -0.33620  -0.33487  -0.33219  -0.33106  -0.31381
  Beta  occ. eigenvalues --   -0.29286  -0.28315  -0.25467
  Beta virt. eigenvalues --   -0.07650   0.00712   0.00987   0.01372   0.01910
  Beta virt. eigenvalues --    0.01990   0.02167   0.02485   0.02733   0.03081
  Beta virt. eigenvalues --    0.03543   0.03762   0.04144   0.04603   0.04780
  Beta virt. eigenvalues --    0.05260   0.05500   0.05794   0.06158   0.06358
  Beta virt. eigenvalues --    0.06542   0.06637   0.06999   0.07226   0.07446
  Beta virt. eigenvalues --    0.07890   0.08157   0.08201   0.08566   0.08975
  Beta virt. eigenvalues --    0.09603   0.10059   0.10420   0.10670   0.11085
  Beta virt. eigenvalues --    0.11438   0.12016   0.12039   0.12280   0.12532
  Beta virt. eigenvalues --    0.13115   0.13453   0.14081   0.14657   0.15104
  Beta virt. eigenvalues --    0.15628   0.15756   0.16103   0.16482   0.16686
  Beta virt. eigenvalues --    0.17113   0.17315   0.17588   0.18026   0.18635
  Beta virt. eigenvalues --    0.18791   0.19050   0.19443   0.19797   0.19943
  Beta virt. eigenvalues --    0.20209   0.20397   0.20709   0.20924   0.21082
  Beta virt. eigenvalues --    0.21351   0.21506   0.21668   0.21891   0.22272
  Beta virt. eigenvalues --    0.22449   0.22652   0.22927   0.23083   0.23490
  Beta virt. eigenvalues --    0.23629   0.24315   0.24452   0.24693   0.24724
  Beta virt. eigenvalues --    0.24983   0.25050   0.25170   0.25669   0.25736
  Beta virt. eigenvalues --    0.25892   0.26069   0.26398   0.26683   0.26909
  Beta virt. eigenvalues --    0.27101   0.27871   0.28219   0.28899   0.29148
  Beta virt. eigenvalues --    0.29511   0.30280   0.30715   0.30867   0.31107
  Beta virt. eigenvalues --    0.31502   0.31871   0.32329   0.32928   0.33400
  Beta virt. eigenvalues --    0.34100   0.34197   0.35067   0.35325   0.36165
  Beta virt. eigenvalues --    0.36740   0.37377   0.38060   0.39904   0.40118
  Beta virt. eigenvalues --    0.40374   0.40588   0.40951   0.41517   0.41903
  Beta virt. eigenvalues --    0.42708   0.42857   0.43163   0.43677   0.44339
  Beta virt. eigenvalues --    0.45186   0.46037   0.47027   0.47858   0.48300
  Beta virt. eigenvalues --    0.49514   0.50202   0.50987   0.51802   0.52691
  Beta virt. eigenvalues --    0.53764   0.54107   0.54529   0.56113   0.56389
  Beta virt. eigenvalues --    0.57903   0.58229   0.58906   0.59792   0.60472
  Beta virt. eigenvalues --    0.60878   0.61207   0.62371   0.63032   0.63188
  Beta virt. eigenvalues --    0.63669   0.63997   0.64557   0.64643   0.65115
  Beta virt. eigenvalues --    0.65191   0.65390   0.65759   0.66146   0.66301
  Beta virt. eigenvalues --    0.67041   0.67375   0.67598   0.67781   0.68236
  Beta virt. eigenvalues --    0.68369   0.68658   0.68902   0.69137   0.69507
  Beta virt. eigenvalues --    0.69552   0.69609   0.70107   0.70404   0.70729
  Beta virt. eigenvalues --    0.71049   0.71742   0.71996   0.72861   0.73185
  Beta virt. eigenvalues --    0.73452   0.74646   0.75418   0.75784   0.75933
  Beta virt. eigenvalues --    0.76866   0.76967   0.77567   0.77890   0.78337
  Beta virt. eigenvalues --    0.78457   0.78823   0.79114   0.79915   0.80953
  Beta virt. eigenvalues --    0.81530   0.82103   0.84516   0.85245   0.87456
  Beta virt. eigenvalues --    0.92575   0.93774   0.95284   0.95678   0.97076
  Beta virt. eigenvalues --    0.97789   0.98631   0.98918   1.00185   1.00862
  Beta virt. eigenvalues --    1.01507   1.01862   1.02476   1.02937   1.04178
  Beta virt. eigenvalues --    1.06978   1.08577   1.10187   1.11222   1.12344
  Beta virt. eigenvalues --    1.12769   1.17919   1.19351   1.20206   1.21558
  Beta virt. eigenvalues --    1.22318   1.23394   1.24091   1.24853   1.26007
  Beta virt. eigenvalues --    1.26418   1.26677   1.27497   1.27597   1.28152
  Beta virt. eigenvalues --    1.28298   1.28462   1.28895   1.30268   1.33640
  Beta virt. eigenvalues --    1.35516   1.37647   1.42647   1.45142   1.46628
  Beta virt. eigenvalues --    1.46750   1.46774   1.47824   1.48451   1.49110
  Beta virt. eigenvalues --    1.49982   1.51774   1.52246   1.52510   1.53157
  Beta virt. eigenvalues --    1.53767   1.54469   1.54681   1.55142   1.55721
  Beta virt. eigenvalues --    1.55996   1.56628   1.57092   1.57494   1.57847
  Beta virt. eigenvalues --    1.58367   1.58889   1.59668   1.60300   1.60621
  Beta virt. eigenvalues --    1.61152   1.61767   1.62257   1.62647   1.63447
  Beta virt. eigenvalues --    1.63767   1.64272   1.65964   1.66268   1.67043
  Beta virt. eigenvalues --    1.67482   1.67579   1.68055   1.68367   1.69137
  Beta virt. eigenvalues --    1.69540   1.71198   1.71540   1.71761   1.72799
  Beta virt. eigenvalues --    1.73319   1.73676   1.74411   1.74913   1.75495
  Beta virt. eigenvalues --    1.75595   1.75824   1.76629   1.78215   1.78948
  Beta virt. eigenvalues --    1.78984   1.80140   1.80291   1.81626   1.82326
  Beta virt. eigenvalues --    1.84269   1.84444   1.85552   1.87274   1.87819
[...]
 00000475,-0.00001064,0.00000438,0.00000601,0.00012357,-0.00005348,0.00
 000548,-0.00000644,-0.00000020,-0.00000821,-0.00000766,-0.00000294,0.0
 0000675,-0.00031148,0.00015573,0.00000629,0.00000864,0.00000189,-0.000
 01108,0.00000783,-0.00000306,0.00001374,-0.00008506,-0.00079678,-0.000
 16247,0.00001518,0.00001905,-0.00003084,0.00000700,0.00000933,0.000037
 11,-0.00019992,-0.00008495,-0.00002671,-0.00200900,0.00101410,-0.00015
 169,0.00006603,0.00004284,-0.00006720,0.00006765,0.00004253,0.00010840
 ,-0.00105991,-0.00624522,-0.00111017,-0.00007490,0.00021214,-0.0004107
 9,-0.00006481,0.00003301,0.00033051,-0.03230337,0.00336796,-0.00310779
 ,-0.00035905,0.00106276,-0.00017329,-0.00012194,0.00095611,0.00034526,
 0.01305513,-0.08009983,0.00121693,0.02167836,-0.00135167,0.00139133,0.
 01250682,-0.00109684,0.00205135,0.01134023,0.56257271,0.00000186,-0.00
 000193,-0.00000066,-0.00000457,0.00000021,0.00000445,0.00000003,0.0000
 0083,-0.00000042,0.00000033,-0.00000042,-0.00000052,0.,-0.00000048,0.0
 0000090,-0.00000073,0.00000118,0.00000015,-0.00000005,-0.00000067,-0.0
 0000065,-0.00000021,0.00000070,-0.00000055,-0.00000003,0.00000003,0.,0
 .00000055,-0.00000033,-0.00000061,-0.00000019,0.00000016,-0.00000012,-
 0.00000015,0.00000021,0.00000115,-0.00000012,0.00000019,-0.00000017,0.
 00000016,-0.00000028,0.00000030,-0.00000015,0.00000018,-0.00000016,0.0
 0000012,-0.00000020,-0.00000019,-0.00000022,0.00000008,0.00000024,-0.0
 0000017,-0.00000008,0.00000009,0.00000012,-0.00000016,-0.00000020,-0.0
 0000005,0.00000013,-0.00000013,0.00000003,-0.00000041,-0.00000043,0.00
 001373,-0.00000269,-0.00000253,-0.00000218,0.00000106,-0.00000082,-0.0
 0000037,0.00000014,0.00000017,0.00002093,-0.00001112,0.00000082,-0.000
 00355,0.00000073,-0.00000164,0.00000067,-0.00000162,0.00000166,-0.0000
 5573,0.00002681,0.00000299,0.00000142,-0.00000123,-0.00000860,0.000002
 39,0.00000452,-0.00000196,-0.00001637,-0.00014429,-0.00005918,0.000002
 06,0.00000889,-0.00000065,0.00000415,-0.00000686,0.00001108,-0.0000307
 2,-0.00001087,-0.00000817,-0.00042234,0.00010592,0.00068168,0.00005613
 ,0.00009602,-0.00002913,-0.00002678,-0.00006823,-0.00003058,-0.0000921
 9,-0.00108955,-0.00077065,0.00021360,-0.00020428,0.00024264,-0.0003303
 5,0.00010788,0.00037696,-0.00756220,0.00028571,-0.00142994,0.00104550,
 0.00048123,0.00034403,-0.00090224,0.00011339,0.00014671,-0.01067277,0.
 00103096,-0.07964783,-0.02610851,0.00144109,-0.00223498,0.02862528,-0.
 00191512,0.00398261,-0.00946361,0.00225465,0.55581901,0.00000038,-0.00
 000070,-0.00000115,-0.00000098,0.00000076,0.00000083,-0.00000008,0.,0.
 00000029,0.00000027,-0.00000059,-0.00000106,-0.00000002,0.00000017,0.0
 0000060,-0.00000026,0.00000042,0.00000060,-0.00000002,-0.00000051,-0.0
 0000056,-0.00000009,0.00000007,0.00000015,-0.00000004,-0.00000009,0.00
 000045,0.00000020,-0.00000014,-0.00000037,-0.00000006,0.00000010,0.,-0
 .00000005,0.00000019,0.00000024,-0.00000004,0.00000008,0.00000004,-0.0
 0000004,0.00000005,0.00000023,-0.00000003,0.00000006,0.00000002,0.0000
 0010,-0.00000014,-0.00000027,-0.00000002,0.00000008,0.00000009,0.00000
 003,0.,0.00000005,0.00000002,-0.00000013,-0.00000019,-0.00000004,0.000
 00004,0.00000004,0.00000002,-0.00000023,-0.00000031,0.00000144,0.00000
 021,0.00000281,-0.00000043,0.00000034,0.,0.00000036,-0.00000012,-0.000
 00140,0.00000166,0.00000569,0.00000597,-0.00000047,0.00000021,0.000000
 20,0.00000275,-0.00000024,-0.00000353,-0.00000112,0.00000253,0.0000047
 1,-0.00000090,-0.00000302,-0.00000421,-0.00000058,0.00000014,0.0000004
 7,0.00001407,0.00000909,0.00000281,-0.00000248,0.00000253,0.00000255,0
 .00001055,0.00000253,-0.00000664,-0.00000393,-0.00000749,-0.00000547,0
 .00005618,-0.00003658,-0.00009398,-0.00003516,-0.00006497,-0.00003618,
 -0.00000297,-0.00000386,0.00000341,-0.00009441,-0.00002245,-0.00027219
 ,-0.00000389,0.00002912,0.00003637,0.00032356,-0.00006331,-0.00018180,
 0.00163755,0.00126750,0.00132179,-0.00002311,-0.00010992,-0.00007409,-
 0.00003035,-0.00087280,-0.00080810,-0.01504379,0.01206446,0.02898441,0
 .00146503,0.00011593,-0.00033598,-0.00660788,0.00034303,-0.00130872,-0
 .08914088,0.03727028,0.08723361,0.09967121,-0.00000281,0.00000160,0.00
 000054,0.00000405,-0.00000091,-0.00000106,-0.00000046,-0.00000017,0.00
 000041,-0.00000039,0.00000031,0.00000003,0.00000069,-0.00000024,-0.000
 00029,0.00000114,-0.00000109,-0.00000014,0.00000014,0.00000098,0.00000
 059,0.00000014,-0.00000028,0.00000003,-0.00000090,0.00000131,-0.000000
 40,-0.00000015,0.00000003,0.00000012,0.00000025,-0.00000027,0.00000027
 ,0.00000071,-0.00000091,-0.00000032,0.,-0.00000012,0.00000008,-0.00000
 062,0.00000072,-0.00000020,0.00000017,-0.00000019,0.00000018,-0.000000
 03,0.00000006,0.00000009,0.00000040,-0.00000032,-0.00000016,0.00000072
 ,0.00000020,-0.00000012,-0.00000024,0.00000022,0.00000023,-0.00000015,
 0.00000001,0.,-0.00000004,0.00000027,0.00000025,-0.00002235,0.00000056
 ,-0.00000301,0.00000260,-0.00000174,0.00000163,0.00000194,-0.00000063,
 -0.00000034,-0.00002281,-0.00000491,-0.00000708,0.00000248,-0.00000010
 ,0.00000207,0.00000074,0.00000112,0.00000076,0.00001743,-0.00001339,-0
 .00000270,-0.00000184,0.00000164,0.00000071,-0.00000136,-0.00000093,0.
 00000059,-0.00000583,0.00002453,-0.00000092,0.00000447,-0.00000476,0.0
 0000388,0.00000354,-0.00000260,0.00000005,0.00003685,0.00001821,0.0000
 0821,0.00003204,-0.00002675,0.00001213,-0.00000133,0.00000414,-0.00000
 890,-0.00000529,-0.00000022,0.00000309,-0.00012473,0.00005205,0.000063
 20,0.00004418,-0.00003132,0.00001675,-0.00005435,-0.00008023,-0.000041
 23,-0.00047970,0.00047352,0.00087931,-0.00001668,0.00001759,0.00006248
 ,0.00005941,0.00038209,-0.00003307,0.00152883,-0.00189505,-0.00250000,
 0.00011534,-0.00022605,-0.00016222,0.00060926,0.00077083,0.00041147,0.
 03758283,-0.08082902,-0.07710479,-0.04260650,0.08347439,-0.00000179,0.
 00000157,0.00000178,0.00000345,-0.00000147,-0.00000172,-0.00000006,0.0
 0000013,-0.00000060,-0.00000046,0.00000051,0.00000151,0.00000017,-0.00
 000017,-0.00000089,0.00000088,-0.00000125,-0.00000066,0.00000016,0.000
 00115,0.00000122,0.00000019,-0.00000013,-0.00000045,-0.00000035,0.0000
 0074,-0.00000064,-0.00000037,0.00000021,0.00000057,0.00000008,-0.00000
 017,0.,0.00000046,-0.00000078,-0.00000045,0.00000005,-0.00000008,-0.00
 000016,-0.00000022,0.00000022,-0.00000040,0.00000006,-0.00000010,-0.00
 000003,-0.00000015,0.00000026,0.00000047,0.00000027,-0.00000030,-0.000
 00019,0.00000033,0.00000012,-0.00000011,-0.00000014,0.00000028,0.00000
 046,-0.00000004,0.,-0.00000016,-0.00000003,0.00000042,0.00000063,-0.00
 001287,-0.00000074,-0.00000358,0.00000151,-0.00000081,0.00000050,0.000
 00067,0.00000004,0.00000118,-0.00001470,-0.00000781,-0.00000561,0.0000
 0048,0.00000079,0.00000022,-0.00000241,0.00000155,0.00000299,0.0000197
 3,-0.00001366,-0.00000538,-0.00000022,0.00000145,0.00000651,0.00000026
 ,-0.00000040,-0.00000262,0.00000281,0.00004035,0.00000649,-0.00000095,
 -0.00000188,-0.00000047,-0.00000577,0.00000140,0.00000280,0.00002491,0
 .00001979,0.00000884,0.00010163,-0.00004229,-0.00004294,0.00000362,-0.
 00000032,0.00002341,0.00000258,0.00000226,-0.00000917,-0.00006574,0.00
 030564,0.00032713,-0.00001701,0.00000307,-0.00001982,-0.00016036,-0.00
 004170,-0.00006957,-0.00022987,0.00016537,0.00039734,0.00006040,-0.000
 05961,-0.00010347,0.00039857,0.00041291,0.00023480,-0.00169352,0.00155
 933,0.00379497,0.00058291,-0.00000682,0.00086506,-0.00125887,-0.000022
 84,0.00154779,0.08801530,-0.07704012,-0.22716276,-0.09674600,0.0858087
 6,0.24550755,0.00000790,-0.00000544,0.00000043,-0.00001508,0.00000426,
 0.00000106,0.00000135,-0.00000071,-0.00000031,0.00000075,0.00000010,0.
 00000018,-0.00000120,-0.00000006,0.00000026,-0.00000393,0.00000384,-0.
 00000085,-0.00000058,-0.00000234,-0.00000141,-0.00000023,0.00000019,0.
 00000042,0.00000269,-0.00000435,0.00000020,0.00000020,0.00000027,0.000
 00010,-0.00000031,0.00000046,-0.00000040,-0.00000236,0.00000278,0.0000
 0027,0.00000010,-0.00000007,0.00000013,0.00000171,-0.00000234,-0.00000
 010,-0.00000026,0.00000028,-0.00000025,-0.00000007,0.00000014,0.000000
 15,-0.00000122,0.00000103,0.00000017,-0.00000195,-0.00000062,0.0000001
 8,0.00000049,-0.00000036,-0.00000035,0.00000053,-0.00000027,0.00000018
 ,0.00000003,-0.00000042,-0.00000032,0.00007408,-0.00000604,0.00000075,
 -0.00000779,0.00000421,-0.00000390,-0.00000734,0.00000256,0.00000365,0
 .00008443,-0.00000911,0.00000451,-0.00000493,-0.00000129,-0.00000530,-
 0.00000499,-0.00000309,0.00000365,-0.00014045,0.00008272,0.00000509,0.
 00000454,0.00000070,-0.00000578,0.00000427,-0.00000075,0.00000599,0.00
 000133,-0.00032820,-0.00006267,0.00000340,0.00001174,-0.00001423,-0.00
 000017,0.00000600,0.00001849,-0.00013575,-0.00006175,-0.00001927,-0.00
 076476,0.00041255,-0.00000614,0.00002474,0.00000934,-0.00003335,0.0000
 1995,-0.00000161,0.00003825,-0.00003528,-0.00225728,-0.00046324,0.0000
 1283,0.00005539,-0.00010549,0.00000726,0.00001514,0.00012448,-0.006524
 53,0.00333105,-0.00024354,0.00013713,0.00016491,0.00027348,0.00016488,
 0.00013817,-0.00024504,-0.01263553,-0.03089633,-0.00636347,0.00130054,
 0.00029403,-0.00042768,0.00112866,0.00002368,0.00075267,-0.08913905,-0
 .09343323,-0.02009471,0.00541285,0.01246929,0.00151079,0.09860941,0.00
 000581,-0.00000240,0.00000006,-0.00000890,0.00000140,0.00000084,0.0000
 0087,-0.00000009,-0.00000101,0.00000037,0.00000005,0.00000061,-0.00000
 040,-0.00000110,0.00000069,-0.00000214,0.00000265,-0.00000026,-0.00000
 029,-0.00000155,-0.00000093,-0.00000027,0.00000069,-0.00000032,0.00000
 192,-0.00000230,0.00000048,0.00000036,-0.00000005,-0.00000031,-0.00000
 021,0.00000034,-0.00000028,-0.00000163,0.00000188,0.00000034,0.0000000
 3,0.00000003,-0.00000003,0.00000148,-0.00000172,0.00000002,-0.00000028
 ,0.00000025,-0.00000024,-0.00000005,0.00000004,0.00000009,-0.00000094,
 0.00000083,0.00000014,-0.00000182,-0.00000047,0.00000018,0.00000048,-0
 .00000033,-0.00000028,0.00000049,-0.00000021,0.00000011,0.00000005,-0.
 00000048,-0.00000031,0.00005000,0.00000048,0.00000312,-0.00000516,0.00
 000276,-0.00000281,-0.00000468,0.00000141,0.00000211,0.00004983,0.0000
 1435,0.00000505,-0.00000374,-0.00000132,-0.00000310,-0.00000359,-0.000
 00231,0.00000171,-0.00002797,0.00002643,0.00000483,0.00000196,-0.00000
 026,0.00000018,0.00000225,0.00000040,-0.00000051,0.00002548,-0.0000471
 7,-0.00000681,-0.00000145,0.00000502,-0.00000336,-0.00000274,0.0000034
 2,0.00000529,-0.00007987,-0.00003821,-0.00001182,0.00000419,0.00007806
 ,0.00001795,0.00000447,-0.00000815,-0.00000059,0.00000670,-0.00000798,
 -0.00000286,0.00040043,0.00012080,-0.00003687,-0.00010079,0.00001946,-
 0.00002872,-0.00007599,0.00001010,0.00002172,0.00007152,0.00078790,0.0
 0011031,0.00023629,0.00030919,-0.00014694,0.00015603,0.00010548,0.0001
 7454,0.00290774,0.00453991,0.00131123,-0.00055979,0.00060289,-0.000275
 30,-0.00065243,0.00038424,0.00027246,-0.09465631,-0.25380873,-0.044710
 01,-0.00384034,-0.01010643,-0.00166725,0.10350655,0.27456672,0.0000020
 4,-0.00000121,-0.00000030,-0.00000329,0.00000070,0.00000054,0.00000020
 ,0.00000008,-0.00000029,0.00000025,-0.00000013,-0.00000001,-0.00000027
 ,-0.00000014,0.00000034,-0.00000081,0.00000094,0.00000015,-0.00000007,
 -0.00000063,-0.00000042,-0.00000013,0.00000028,-0.00000009,0.00000061,
 -0.00000085,0.00000037,0.00000016,-0.00000008,-0.00000018,-0.00000014,
 0.00000018,-0.00000020,-0.00000052,0.00000060,0.00000022,-0.00000002,0
 .00000009,-0.00000005,0.00000044,-0.00000054,0.00000016,-0.00000012,0.
 00000014,-0.00000014,0.00000003,-0.00000005,-0.00000005,-0.00000028,0.
 00000026,0.00000009,-0.00000051,-0.00000015,0.00000010,0.00000016,-0.0
 0000015,-0.00000015,0.00000009,0.,0.,0.00000004,-0.00000021,-0.0000001
 8,0.00001681,-0.00000083,0.00000187,-0.00000189,0.00000115,-0.00000123
 ,-0.00000148,0.00000046,0.00000034,0.00001795,0.00000061,0.00000485,-0
 .00000133,-0.00000006,-0.00000178,-0.00000092,-0.00000074,-0.00000012,
 -0.00002101,0.00001563,-0.00000503,0.00000097,-0.00000087,-0.00000049,
 0.00000072,0.00000052,0.00000107,0.00000360,-0.00004867,-0.00000414,-0
 .00000196,0.00000377,-0.00000483,0.00000233,0.00000092,0.00000027,-0.0
 0002914,-0.00001359,-0.00000520,-0.00008993,0.00006596,-0.00001554,0.0
 0000668,-0.00000496,-0.00000103,-0.00000030,0.00000107,0.00000726,-0.0
 0000348,-0.00035419,0.00052630,0.00007382,0.00001062,-0.00003070,-0.00
 009618,0.00001151,-0.00001320,-0.00081881,0.00049673,0.00026162,-0.000
 08467,-0.00040346,0.00015865,0.00014391,0.00042558,0.00032429,-0.00090
 475,-0.00273427,-0.00200481,0.00001602,-0.00025141,-0.00011518,0.00009
 024,0.00044076,0.00023581,-0.02031002,-0.04458536,-0.05671245,-0.01186
 946,-0.02474283,-0.00498417,0.02298270,0.04928315,0.05691841,-0.000000
 41,-0.00000004,0.00000032,-0.00000012,0.00000060,-0.00000040,0.0000000
 5,-0.00000075,0.00000046,-0.00000003,0.00000013,-0.00000007,0.00000021
 ,0.00000005,-0.00000006,-0.00000013,0.00000011,-0.00000038,-0.00000004
 ,0.,-0.00000003,0.00000006,-0.00000037,0.00000032,-0.00000001,-0.00000
 014,-0.00000014,-0.00000010,0.00000014,0.00000006,0.00000013,-0.000000
 07,0.00000019,-0.00000004,0.00000011,-0.00000021,0.00000003,-0.0000001
 5,0.00000014,-0.00000007,0.00000002,-0.00000010,0.00000008,-0.00000006
 ,0.00000012,-0.00000004,0.00000004,-0.00000002,0.,0.00000002,-0.000000
 04,0.00000006,0.,-0.00000004,-0.00000004,0.00000002,0.,0.00000002,-0.0
 0000008,0.00000008,-0.00000001,0.00000005,0.00000003,-0.00000029,0.000
 00081,-0.00000307,0.00000040,-0.00000049,0.00000103,-0.00000030,0.0000
 0031,0.00000021,-0.00000014,0.00000470,-0.00000248,0.00000168,-0.00000
 106,0.00000284,-0.00000074,0.00000049,0.00000028,0.00000287,0.00000070
 ,-0.00000220,-0.00000043,0.00000025,0.00000041,-0.00000107,-0.00000345
 ,0.00000111,0.00001429,0.00001640,0.00000101,0.00000741,0.00000032,0.0
 0000778,-0.00000292,0.00000300,-0.00000126,0.00000009,-0.00000401,0.00
 000252,0.00005360,-0.00007673,0.00009707,-0.00000087,-0.00000075,-0.00
 000151,-0.00003611,-0.00006825,-0.00000144,-0.00014338,-0.00001017,0.0
 0017597,0.00023516,-0.00013862,0.00021175,-0.00001080,0.00003740,-0.00
 001538,0.00176436,0.00161250,-0.00048663,-0.00007175,-0.00097208,0.000
 46644,-0.00003251,-0.00012995,0.00003318,-0.00845285,0.02127864,-0.026
 62016,-0.00676643,0.00022959,-0.00060176,0.00148445,0.00002180,0.00050
 503,-0.05833954,0.03383353,-0.04143142,0.00239590,-0.00917106,0.009479
 60,0.00242172,-0.00740354,0.01088173,0.06547858,-0.00000262,0.00000142
 ,-0.00000069,0.00000434,-0.00000176,0.00000019,-0.00000086,0.00000106,
 -0.00000048,-0.00000007,-0.00000038,-0.00000042,0.00000070,-0.00000054
 ,0.00000052,0.00000167,-0.00000114,0.00000112,0.00000034,0.00000088,0.
 00000047,-0.00000010,0.00000061,-0.00000081,-0.00000127,0.00000213,0.0
 0000062,0.00000025,-0.00000047,-0.00000047,0.,-0.00000006,-0.00000008,
 0.00000102,-0.00000134,0.00000029,-0.00000016,0.00000028,-0.00000029,-
 0.00000074,0.00000090,0.00000026,-0.00000003,0.00000004,-0.00000012,0.
 00000012,-0.00000020,-0.00000012,0.00000057,-0.00000044,0.00000010,0.0
 0000089,0.00000026,0.,-0.00000018,0.00000008,0.00000011,-0.00000034,0.
 00000028,-0.00000026,0.00000002,-0.00000007,-0.00000005,-0.00002654,-0
 .00000046,0.00000286,0.00000233,-0.00000078,0.00000020,0.00000302,-0.0
 0000144,-0.00000220,-0.00002711,-0.00000887,0.00000202,0.00000036,0.00
 000207,-0.00000092,0.00000275,0.00000079,-0.00000170,0.00002247,-0.000
 01811,0.00000105,-0.00000103,-0.00000094,-0.00000032,-0.00000168,0.000
 00277,-0.00000185,-0.00000676,0.00003386,0.00001271,0.00000171,-0.0000
 0165,-0.00000151,0.00000479,-0.00000391,-0.00000475,0.00004373,0.00002
 456,0.00000331,0.00005998,-0.00003463,-0.00000495,-0.00000374,0.000000
 79,-0.00000010,0.00000079,0.00000511,0.00000283,-0.00010705,0.00019793
 ,-0.00013148,-0.00011733,-0.00009528,-0.00000264,0.00003802,-0.0000281
 5,-0.00001073,-0.00035072,0.00075470,-0.00084741,0.00015471,0.00051421
 ,0.00017831,-0.00000443,0.00001525,-0.00005130,0.00097134,-0.00242731,
 0.00188461,0.00061586,0.00095328,-0.00053029,0.00027376,-0.00015894,-0
 .00013909,0.03451436,-0.14510702,0.11931271,-0.00348147,0.00800228,-0.
 00941759,0.00647427,-0.01755589,0.02238368,-0.03905992,0.15493428,0.00
 000031,-0.00000067,-0.00000016,-0.00000147,0.00000175,-0.00000053,0.00
 000025,-0.00000134,0.00000146,0.00000001,0.00000028,-0.00000063,-0.000
 00004,0.00000051,-0.00000017,-0.00000084,0.00000061,-0.00000077,-0.000
 00022,-0.00000050,-0.00000062,0.00000012,-0.00000083,0.00000117,0.0000
 0036,-0.00000101,-0.00000040,-0.00000017,0.00000032,0.00000016,0.00000
 020,-0.00000010,0.00000034,-0.00000043,0.00000071,-0.00000037,0.000000
 11,-0.00000030,0.00000048,0.00000009,-0.00000010,-0.00000008,0.0000001
 7,-0.00000016,0.00000031,-0.00000003,0.00000004,-0.00000017,-0.0000002
 3,0.00000023,-0.00000015,-0.00000015,-0.00000008,-0.00000003,0.,-0.000
 00004,-0.00000019,0.00000013,-0.00000022,0.00000036,-0.00000004,0.0000
 0007,-0.00000012,0.00000635,0.00000152,-0.00000300,-0.00000007,-0.0000
 0076,0.00000125,-0.00000091,0.00000065,0.00000046,0.00000728,0.0000074
 4,-0.00000045,0.00000262,-0.00000246,0.00000303,-0.00000002,-0.0000003
 0,-0.00000048,-0.00001233,0.00001087,-0.00000473,-0.00000042,0.0000010
 7,-0.00000199,-0.00000135,-0.00000410,0.00000548,-0.00000130,-0.000028
 09,-0.00000387,0.00000802,-0.00000310,0.00000465,0.00000145,0.00000197
 ,-0.00000135,-0.00001315,-0.00001520,0.00000026,-0.00006580,0.00003158
 ,-0.00002982,-0.00000270,0.00000010,-0.00000973,-0.00001728,-0.0000239
 3,0.00002317,-0.00006620,-0.00036895,0.00024019,0.00020404,-0.00000605
 ,0.00003458,0.00002953,0.00000456,-0.00002620,0.00043376,0.00035473,-0
 .00004832,-0.00044342,-0.00056901,0.00020192,-0.00001924,0.00007979,-0
 .00008826,-0.00083690,0.00152467,-0.00230518,-0.00053191,-0.00017967,0
 .00154037,-0.00037269,-0.00031931,0.00081643,-0.04212308,0.11912262,-0
 .19351095,-0.00585108,0.01733184,-0.02031819,0.00236960,-0.00431631,0.
 00545927,0.04729910,-0.13263536,0.20802157\\0.00000481,-0.00000141,-0.
 00000550,-0.00000115,0.00000788,0.00000061,0.00000189,-0.00000234,0.00
 000313,-0.00000117,-0.00000261,0.00000064,-0.00000334,0.00000152,0.000
 00334,-0.00000069,-0.00000114,-0.00000051,0.00000024,0.00000121,0.0000
 0163,-0.00000002,-0.00000101,0.00000231,-0.00000079,-0.00000099,0.0000
 0207,-0.00000006,0.00000012,0.00000202,-0.00000020,0.00000053,0.000000
 36,0.00000032,0.00000040,0.00000175,0.00000083,-0.00000042,0.00000197,
 -0.00000050,-0.00000264,0.00000284,-0.00000113,-0.00000110,0.00000065,
 -0.00000050,0.00000024,0.00000260,0.00000054,0.00000196,0.00000142,-0.
 00000125,0.00000094,0.00000245,-0.00000017,-0.00000069,0.00000072,0.00
 000062,-0.00000012,0.00000257,0.00000008,-0.00000049,0.00000116,0.0000
 0041,-0.00000408,-0.00000143,-0.00000071,0.00000130,-0.00000064,-0.000
 00086,0.00000009,0.00000163,0.00000041,-0.00000033,0.00000025,-0.00000
 003,0.00000009,-0.00000105,0.00000018,0.00000097,0.00000106,-0.0000011
 5,0.00000071,-0.00000045,0.00000056,-0.00000026,-0.00000119,-0.0000000
 1,-0.00000075,0.00000019,-0.00000013,-0.00000141,-0.00000069,-0.000000
 05,0.00000093,-0.00000158,-0.00000037,0.00000018,0.00000016,0.00000065
 ,-0.00000012,-0.00000041,-0.00000044,0.00000117,-0.00000115,0.00000040
 ,-0.00000018,-0.00000165,0.00000021,-0.00000081,-0.00000040,0.00000022
 ,-0.00000124,-0.00000128,-0.00000014,0.00000087,-0.00000206,-0.0000001
 0,0.00000038,-0.00000042,-0.00000046,0.00000129,-0.00000166,0.00000039
 ,-0.00000053,-0.00000081,0.00000038,-0.00000013,-0.00000217,0.00000082
 ,-0.00000074,-0.00000158,-0.00000023,0.00000078,-0.00000250,0.00000005
 ,0.00000060,-0.00000093,-0.00000028,0.00000057,-0.00000160,0.00000039,
 -0.00000024,-0.00000283,0.00000088,0.00000120,-0.00000194,0.00000065,-
 0.00000020,-0.00000110\\\@


 THE REASON MAN'S BEST FRIEND IS A DOG IS BECAUSE
 HE WAGS HIS TAIL INSTEAD OF HIS TONGUE.
 Job cpu time:       0 days 16 hours  1 minutes 36.0 seconds.
 File lengths (MBytes):  RWF=   2444 Int=      0 D2E=      0 Chk=     35 Scr=      1
 Normal termination of Gaussian 09 at Tue Apr 23 13:55:47 2024.
