module: Command not found.
module: Command not found.
 Entering Gaussian System, Link 0=g09
 Initial command:
 /opt/gaussian/g09/l1.exe "/tmp/G09-ChemRevAminoAcids9_boc_Brimble.com.o10569492.tmp/Gau-3174193.inp" -scrdir="/tmp/G09-ChemRevAminoAcids9_boc_Brimble.com.o10569492.tmp/"
 Entering Link 1 = /opt/gaussian/g09/l1.exe PID=   3174194.
  
 Copyright (c) 1988,1990,1992,1993,1995,1998,2003,2009,2013,
            Gaussian, Inc.  All Rights Reserved.
  
 This is part of the Gaussian(R) 09 program.  It is based on
 the Gaussian(R) 03 system (copyright 2003, Gaussian, Inc.),
 the Gaussian(R) 98 system (copyright 1998, Gaussian, Inc.),
 the Gaussian(R) 94 system (copyright 1995, Gaussian, Inc.),
 the Gaussian 92(TM) system (copyright 1992, Gaussian, Inc.),
 the Gaussian 90(TM) system (copyright 1990, Gaussian, Inc.),
 the Gaussian 88(TM) system (copyright 1988, Gaussian, Inc.),
 the Gaussian 86(TM) system (copyright 1986, Carnegie Mellon
 University), and the Gaussian 82(TM) system (copyright 1983,
 Carnegie Mellon University). Gaussian is a federally registered
 trademark of Gaussian, Inc.
  
 This software contains proprietary and confidential information,
 including trade secrets, belonging to Gaussian, Inc.
  
 This software is provided under written license and may be
 used, copied, transmitted, or stored only in accord with that
 written license.
  
 The following legend is applicable only to US Government
 contracts under FAR:
  
                    RESTRICTED RIGHTS LEGEND
  
 Use, reproduction and disclosure by the US Government is
 subject to restrictions as set forth in subparagraphs (a)
 and (c) of the Commercial Computer Software - Restricted
 Rights clause in FAR 52.227-19.
  
 Gaussian, Inc.
 340 Quinnipiac St., Bldg. 40, Wallingford CT 06492
  
  
 ---------------------------------------------------------------
 Warning -- This program may not be used in any manner that
 competes with the business of Gaussian, Inc. or will provide
 assistance to any competitor of Gaussian, Inc.  The licensee
 of this program is prohibited from giving any competitor of
 Gaussian, Inc. access to this program.  By using this program,
 the user acknowledges that Gaussian, Inc. is engaged in the
 business of creating and licensing software in the field of
 computational chemistry and represents and warrants to the
 licensee that it is not a competitor of Gaussian, Inc. and that
 it will not use this program in any manner prohibited above.
 ---------------------------------------------------------------
  

 Cite this work as:
 Gaussian 09, Revision D.01,
 M. J. Frisch, G. W. Trucks, H. B. Schlegel, G. E. Scuseria, 
 M. A. Robb, J. R. Cheeseman, G. Scalmani, V. Barone, B. Mennucci, 
 G. A. Petersson, H. Nakatsuji, M. Caricato, X. Li, H. P. Hratchian, 
 A. F. Izmaylov, J. Bloino, G. Zheng, J. L. Sonnenberg, M. Hada, 
 M. Ehara, K. Toyota, R. Fukuda, J. Hasegawa, M. Ishida, T. Nakajima, 
 Y. Honda, O. Kitao, H. Nakai, T. Vreven, J. A. Montgomery, Jr., 
 J. E. Peralta, F. Ogliaro, M. Bearpark, J. J. Heyd, E. Brothers, 
 K. N. Kudin, V. N. Staroverov, T. Keith, R. Kobayashi, J. Normand, 
 K. Raghavachari, A. Rendell, J. C. Burant, S. S. Iyengar, J. Tomasi, 
 M. Cossi, N. Rega, J. M. Millam, M. Klene, J. E. Knox, J. B. Cross, 
 V. Bakken, C. Adamo, J. Jaramillo, R. Gomperts, R. E. Stratmann, 
 O. Yazyev, A. J. Austin, R. Cammi, C. Pomelli, J. W. Ochterski, 
 R. L. Martin, K. Morokuma, V. G. Zakrzewski, G. A. Voth, 
 P. Salvador, J. J. Dannenberg, S. Dapprich, A. D. Daniels, 
 O. Farkas, J. B. Foresman, J. V. Ortiz, J. Cioslowski, 
 and D. J. Fox, Gaussian, Inc., Wallingford CT, 2013.
 
 ******************************************
 Gaussian 09:  ES64L-G09RevD.01 24-Apr-2013
                15-Feb-2024 
 ******************************************
 %nprocshared=20
 Will use up to   20 processors via shared memory.
 %mem=4GB
 %chk=ChemRevAminoAcids9_boc_Brimble.chk
 ----------------------------------------------------------------------
 # opt=rcfc freq=noraman b3lyp/6-311+g(d,p) pop=(npa,hirshfeld,chelpg,m
 bs) geom=allcheck guess=read
 ----------------------------------------------------------------------
 1/10=5,14=-1,18=20,19=15,26=3,29=7,38=1/1,3;
 2/9=110,12=2,40=1/2;
 3/5=4,6=6,7=111,11=2,14=-4,16=1,25=1,30=1,71=1,74=-5,116=-2/1,2,3;
 4/5=1/1;
 5/5=2,38=6/2;
 6/7=2,8=2,9=2,10=2,15=8,20=3,27=100,28=1,40=-1,79=1/1,2,7;
 7//1,2,3,16;
 1/14=-1,18=20,19=15,26=3/3(2);
 2/9=110/2;
 99//99;
 2/9=110/2;
 3/5=4,6=6,7=111,11=2,14=-2,16=1,25=1,30=1,71=1,74=-5/1,2,3;
 4/5=5,16=3,69=1/1;
 5/5=2,38=5/2;
 7//1,2,3,16;
 1/14=-1,18=20,19=15,26=3/3(-5);
 2/9=110/2;
 6/7=2,8=2,9=2,10=2,15=8,19=2,20=3,27=100,28=1,40=-1,79=1/1,2,7;
 99/9=1/99;
 Structure from the checkpoint file:  "ChemRevAminoAcids9_boc_Brimble.chk"
 -------------------
 Title Card Required
 -------------------
 Charge =  0 Multiplicity = 1
 Redundant internal coordinates found in file.
 C,0,2.4937250009,0.7064116072,-0.5820114411
 C,0,1.7865962402,-0.3926171243,-0.0161758714
 C,0,2.5107780548,-1.3865611663,0.6604967247
 C,0,3.8894655252,-1.2644596154,0.7644563037
 C,0,4.5669427517,-0.1661335367,0.2027845197
 C,0,3.8792501475,0.8316310281,-0.4772026598
 C,0,0.306827508,0.9868856874,-1.0150173393
 C,0,0.3959697201,-0.1773487108,-0.3125449134
 H,0,2.0017737591,-2.2389750228,1.0970577901
 H,0,4.4575656649,-2.0263736079,1.2859003389
 H,0,5.6442728543,-0.0976818681,0.3007600968
 H,0,4.4047918224,1.6755074117,-0.9110218995
 H,0,1.76397951,2.4195727511,-1.622539583
 N,0,1.5637610228,1.5311965668,-1.1939318395
 C,0,-0.8423515479,-0.9763444008,-0.0630319353
 H,0,-1.0538738956,-1.615603838,-0.929460985
 H,0,-0.7377281797,-1.6400984597,0.7973125189
 C,0,-0.9855544324,1.5416330458,-1.5101191172
 H,0,-0.9478374309,2.6250689988,-1.608217543
 H,0,-1.2340849791,1.1339682539,-2.5000731272
 N,0,-2.0473868302,1.2073542451,-0.546125608
 C,0,-2.0688399885,-0.0555761031,0.2053370421
 H,0,-2.0976640003,0.1845456633,1.2692831514
 C,0,-3.3368038094,-0.8497878546,-0.1251219478
 O,0,-3.8843019378,-0.8735809198,-1.1980547473
 O,0,-3.7123007619,-1.5902638806,0.9331450067
 C,0,-4.877722345,-2.4148085564,0.7440033643
 H,0,-5.0271646484,-2.9282827583,1.6911732984
 H,0,-5.7409910156,-1.7934604503,0.5033750672
 H,0,-4.7130478028,-3.1319709441,-0.0615060263
 C,0,-3.0779331331,2.0665353683,-0.2662434683
 O,0,-3.9353276864,1.8187147933,0.5632319035
 O,0,-3.0121863928,3.1939419759,-1.010460881
 C,0,-4.0336773379,4.2568366866,-0.8844100355
 C,0,-4.0151098261,4.8401574829,0.5303773001
 H,0,-4.6800295046,5.70728294,0.5733796313
 H,0,-4.3470720885,4.1074729136,1.2638781413
 H,0,-3.0072134353,5.1733267779,0.7921197416
 C,0,-5.4091437437,3.7107669442,-1.2744865241
 H,0,-6.1285968705,4.5337934032,-1.3062166999
 H,0,-5.3699228408,3.254501048,-2.266788764
 H,0,-5.7576401113,2.9677407274,-0.5594023681
 C,0,-3.5548667585,5.2921241509,-1.9031787841
 H,0,-4.2386114968,6.144232006,-1.9187990677
 H,0,-2.5573130883,5.6562569964,-1.6458431982
 H,0,-3.5195625517,4.8591260241,-2.9054100861
 Recover connectivity data from disk.

 GradGradGradGradGradGradGradGradGradGradGradGradGradGradGradGradGradGrad
 Berny optimization.
 Initialization pass.
 Cartesian force constants read from checkpoint file:
 "ChemRevAminoAcids9_boc_Brimble.chk"
 FormGI is forming the generalized inverse of G from B-inverse, IUseBI=4.
                           ----------------------------
                           !    Initial Parameters    !
                           ! (Angstroms and Degrees)  !
 --------------------------                            --------------------------
 ! Name  Definition              Value          Derivative Info.                !
 --------------------------------------------------------------------------------
 ! R1    R(1,2)                  1.4241         D2E/DX2 =    0.2681             !
 ! R2    R(1,6)                  1.3951         D2E/DX2 =    0.386              !
 ! R3    R(1,14)                 1.3855         D2E/DX2 =    0.3323             !
 ! R4    R(2,3)                  1.4037         D2E/DX2 =    0.3737             !
 ! R5    R(2,8)                  1.4381         D2E/DX2 =    0.2969             !
 ! R6    R(3,4)                  1.388          D2E/DX2 =    0.4032             !
 ! R7    R(3,9)                  1.0846         D2E/DX2 =    0.3546             !
 ! R8    R(4,5)                  1.4074         D2E/DX2 =    0.3605             !
 ! R9    R(4,10)                 1.084          D2E/DX2 =    0.3556             !
 ! R10   R(5,6)                  1.3895         D2E/DX2 =    0.4012             !
 ! R11   R(5,11)                 1.0839         D2E/DX2 =    0.3559             !
 ! R12   R(6,12)                 1.0847         D2E/DX2 =    0.3542             !
 ! R13   R(7,8)                  1.3627         D2E/DX2 =    0.3497             !
 ! R14   R(7,14)                 1.3814         D2E/DX2 =    0.3349             !
 ! R15   R(7,18)                 1.491          D2E/DX2 =    0.2724             !
 ! R16   R(8,15)                 1.4947         D2E/DX2 =    0.2729             !
 ! R17   R(13,14)                1.0065         D2E/DX2 =    0.4778             !
 ! R18   R(15,16)                1.0973         D2E/DX2 =    0.321              !
 ! R19   R(15,17)                1.0917         D2E/DX2 =    0.3364             !
 ! R20   R(15,22)                1.557          D2E/DX2 =    0.218              !
 ! R21   R(18,19)                1.0885         D2E/DX2 =    0.3442             !
 ! R22   R(18,20)                1.0991         D2E/DX2 =    0.3161             !
 ! R23   R(18,21)                1.4726         D2E/DX2 =    0.2693             !
 ! R24   R(21,22)                1.4697         D2E/DX2 =    0.2787             !
 ! R25   R(21,31)                1.3706         D2E/DX2 =    0.4455             !
 ! R26   R(22,23)                1.0911         D2E/DX2 =    0.3354             !
 ! R27   R(22,24)                1.5322         D2E/DX2 =    0.256              !
 ! R28   R(24,25)                1.2048         D2E/DX2 =    0.8396             !
 ! R29   R(24,26)                1.3451         D2E/DX2 =    0.3921             !
 ! R30   R(26,27)                1.4401         D2E/DX2 =    0.3109             !
 ! R31   R(27,28)                1.0877         D2E/DX2 =    0.3482             !
 ! R32   R(27,29)                1.0905         D2E/DX2 =    0.3409             !
 ! R33   R(27,30)                1.091          D2E/DX2 =    0.3393             !
 ! R34   R(31,32)                1.2184         D2E/DX2 =    0.768              !
 ! R35   R(31,33)                1.3525         D2E/DX2 =    0.3811             !
 ! R36   R(33,34)                1.4796         D2E/DX2 =    0.2495             !
 ! R37   R(34,35)                1.5304         D2E/DX2 =    0.2718             !
 ! R38   R(34,39)                1.5304         D2E/DX2 =    0.2722             !
 ! R39   R(34,43)                1.5294         D2E/DX2 =    0.2777             !
 ! R40   R(35,36)                1.0936         D2E/DX2 =    0.3348             !
 ! R41   R(35,37)                1.0886         D2E/DX2 =    0.3471             !
 ! R42   R(35,38)                1.0933         D2E/DX2 =    0.3349             !
 ! R43   R(39,40)                1.0936         D2E/DX2 =    0.3346             !
 ! R44   R(39,41)                1.0929         D2E/DX2 =    0.336              !
 ! R45   R(39,42)                1.0885         D2E/DX2 =    0.3472             !
 ! R46   R(43,44)                1.0926         D2E/DX2 =    0.3373             !
 ! R47   R(43,45)                1.0927         D2E/DX2 =    0.3362             !
 ! R48   R(43,46)                1.0923         D2E/DX2 =    0.3372             !
 ! A1    A(2,1,6)              122.1778         D2E/DX2 =    0.0772             !
 ! A2    A(2,1,14)             107.5546         D2E/DX2 =    0.0882             !
 ! A3    A(6,1,14)             130.2675         D2E/DX2 =    0.0945             !
 ! A4    A(1,2,3)              118.8055         D2E/DX2 =    0.0746             !
 ! A5    A(1,2,8)              106.4248         D2E/DX2 =    0.0824             !
 ! A6    A(3,2,8)              134.7697         D2E/DX2 =    0.0858             !
 ! A7    A(2,3,4)              119.0967         D2E/DX2 =    0.0807             !
 ! A8    A(2,3,9)              120.561          D2E/DX2 =    0.0795             !
 ! A9    A(4,3,9)              120.3423         D2E/DX2 =    0.0798             !
 ! A10   A(3,4,5)              121.1249         D2E/DX2 =    0.0819             !
 ! A11   A(3,4,10)             119.6529         D2E/DX2 =    0.0819             !
 ! A12   A(5,4,10)             119.2222         D2E/DX2 =    0.0817             !
 ! A13   A(4,5,6)              121.1598         D2E/DX2 =    0.0812             !
 ! A14   A(4,5,11)             119.4486         D2E/DX2 =    0.0814             !
 ! A15   A(6,5,11)             119.3914         D2E/DX2 =    0.0816             !
 ! A16   A(1,6,5)              117.6337         D2E/DX2 =    0.0798             !
 ! A17   A(1,6,12)             121.3972         D2E/DX2 =    0.078              !
 ! A18   A(5,6,12)             120.969          D2E/DX2 =    0.0788             !
 ! A19   A(8,7,14)             110.1149         D2E/DX2 =    0.0858             !
 ! A20   A(8,7,18)             123.0769         D2E/DX2 =    0.0666             !
 ! A21   A(14,7,18)            126.8046         D2E/DX2 =    0.0893             !
 ! A22   A(2,8,7)              107.3013         D2E/DX2 =    0.0824             !
 ! A23   A(2,8,15)             133.372          D2E/DX2 =    0.0809             !
 ! A24   A(7,8,15)             119.2469         D2E/DX2 =    0.0632             !
 ! A25   A(1,14,7)             108.6013         D2E/DX2 =    0.0903             !
 ! A26   A(1,14,13)            125.4511         D2E/DX2 =    0.0757             !
 ! A27   A(7,14,13)            125.73           D2E/DX2 =    0.0759             !
 ! A28   A(8,15,16)            109.8347         D2E/DX2 =    0.0357             !
 ! A29   A(8,15,17)            112.1595         D2E/DX2 =    0.0369             !
 ! A30   A(8,15,22)            111.4246         D2E/DX2 =    0.0683             !
 ! A31   A(16,15,17)           106.6512         D2E/DX2 =    0.0184             !
 ! A32   A(16,15,22)           109.1945         D2E/DX2 =    0.0434             !
 ! A33   A(17,15,22)           107.4115         D2E/DX2 =    0.0433             !
 ! A34   A(7,18,19)            111.7288         D2E/DX2 =    0.043              !
 ! A35   A(7,18,20)            110.9215         D2E/DX2 =    0.0405             !
 ! A36   A(7,18,21)            108.855          D2E/DX2 =    0.0738             !
 ! A37   A(19,18,20)           107.2082         D2E/DX2 =    0.0229             !
 ! A38   A(19,18,21)           108.0544         D2E/DX2 =    0.0489             !
 ! A39   A(20,18,21)           110.022          D2E/DX2 =    0.0448             !
 ! A40   A(18,21,22)           122.7031         D2E/DX2 =    0.0742             !
 ! A41   A(18,21,31)           122.2451         D2E/DX2 =    0.1788             !
 ! A42   A(22,21,31)           115.0414         D2E/DX2 =    0.1772             !
 ! A43   A(15,22,21)           114.1135         D2E/DX2 =    0.0534             !
 ! A44   A(15,22,23)           108.605          D2E/DX2 =    0.024              !
 ! A45   A(15,22,24)           107.949          D2E/DX2 =    0.0625             !
 ! A46   A(21,22,23)           108.05           D2E/DX2 =    0.0237             !
 ! A47   A(21,22,24)           110.3167         D2E/DX2 =    0.0597             !
 ! A48   A(23,22,24)           107.6091         D2E/DX2 =    0.0227             !
 ! A49   A(22,24,25)           125.3358         D2E/DX2 =    0.1538             !
 ! A50   A(22,24,26)           110.2845         D2E/DX2 =    0.1681             !
 ! A51   A(25,24,26)           124.2588         D2E/DX2 =    0.2038             !
 ! A52   A(24,26,27)           115.9627         D2E/DX2 =    0.2871             !
 ! A53   A(26,27,28)           105.4922         D2E/DX2 =    0.1419             !
 ! A54   A(26,27,29)           110.083          D2E/DX2 =    0.1422             !
 ! A55   A(26,27,30)           110.5603         D2E/DX2 =    0.142              !
 ! A56   A(28,27,29)           110.6316         D2E/DX2 =    0.0687             !
 ! A57   A(28,27,30)           110.6923         D2E/DX2 =    0.0686             !
 ! A58   A(29,27,30)           109.3362         D2E/DX2 =    0.0703             !
 ! A59   A(21,31,32)           122.7255         D2E/DX2 =    0.2177             !
 ! A60   A(21,31,33)           111.9394         D2E/DX2 =    0.2518             !
 ! A61   A(32,31,33)           125.3348         D2E/DX2 =    0.2294             !
 ! A62   A(31,33,34)           121.2245         D2E/DX2 =    0.3744             !
 ! A63   A(33,34,35)           110.1326         D2E/DX2 =    0.0351             !
 ! A64   A(33,34,39)           110.0264         D2E/DX2 =    0.0357             !
 ! A65   A(33,34,43)           102.3218         D2E/DX2 =    0.0343             !
 ! A66   A(35,34,39)           112.4897         D2E/DX2 =    0.0461             !
 ! A67   A(35,34,43)           110.7315         D2E/DX2 =    0.0519             !
 ! A68   A(39,34,43)           110.6786         D2E/DX2 =    0.0516             !
 ! A69   A(34,35,36)           109.3417         D2E/DX2 =    0.1029             !
 ! A70   A(34,35,37)           111.2633         D2E/DX2 =    0.1057             !
 ! A71   A(34,35,38)           110.4042         D2E/DX2 =    0.1042             !
 ! A72   A(36,35,37)           108.7704         D2E/DX2 =    0.0501             !
 ! A73   A(36,35,38)           108.0276         D2E/DX2 =    0.0487             !
 ! A74   A(37,35,38)           108.9599         D2E/DX2 =    0.052              !
 ! A75   A(34,39,40)           109.2762         D2E/DX2 =    0.1031             !
 ! A76   A(34,39,41)           110.373          D2E/DX2 =    0.1047             !
 ! A77   A(34,39,42)           111.337          D2E/DX2 =    0.1049             !
 ! A78   A(40,39,41)           108.1471         D2E/DX2 =    0.0488             !
 ! A79   A(40,39,42)           108.7929         D2E/DX2 =    0.0501             !
 ! A80   A(41,39,42)           108.8436         D2E/DX2 =    0.0519             !
 ! A81   A(34,43,44)           109.97           D2E/DX2 =    0.1025             !
 ! A82   A(34,43,45)           110.7647         D2E/DX2 =    0.1034             !
 ! A83   A(34,43,46)           110.6691         D2E/DX2 =    0.1036             !
 ! A84   A(44,43,45)           108.3476         D2E/DX2 =    0.0497             !
 ! A85   A(44,43,46)           108.436          D2E/DX2 =    0.0497             !
 ! A86   A(45,43,46)           108.5829         D2E/DX2 =    0.0513             !
 ! D1    D(6,1,2,3)             -0.4751         D2E/DX2 =    0.0039             !
 ! D2    D(6,1,2,8)            179.5458         D2E/DX2 =    0.0034             !
 ! D3    D(14,1,2,3)           179.6061         D2E/DX2 =    0.0038             !
 ! D4    D(14,1,2,8)            -0.373          D2E/DX2 =    0.006              !
 ! D5    D(2,1,6,5)              0.2459         D2E/DX2 =    0.0063             !
 ! D6    D(2,1,6,12)          -179.8464         D2E/DX2 =    0.0062             !
 ! D7    D(14,1,6,5)          -179.8555         D2E/DX2 =    0.0075             !
 ! D8    D(14,1,6,12)            0.0522         D2E/DX2 =    0.007              !
 ! D9    D(2,1,14,7)             0.5577         D2E/DX2 =    0.0069             !
 ! D10   D(2,1,14,13)          175.4398         D2E/DX2 =    0.003              !
 ! D11   D(6,1,14,7)          -179.3523         D2E/DX2 =    0.0043             !
 ! D12   D(6,1,14,13)           -4.4702         D2E/DX2 =    0.0024             !
 ! D13   D(1,2,3,4)              0.387          D2E/DX2 =    0.0066             !
 ! D14   D(1,2,3,9)           -179.6285         D2E/DX2 =    0.0066             !
 ! D15   D(8,2,3,4)           -179.6413         D2E/DX2 =    0.0072             !
 ! D16   D(8,2,3,9)              0.3432         D2E/DX2 =    0.007              !
 ! D17   D(1,2,8,7)              0.0512         D2E/DX2 =    0.0058             !
 ! D18   D(1,2,8,15)           176.6607         D2E/DX2 =    0.0055             !
 ! D19   D(3,2,8,7)           -179.923          D2E/DX2 =    0.0042             !
 ! D20   D(3,2,8,15)            -3.3134         D2E/DX2 =    0.0041             !
 ! D21   D(2,3,4,5)             -0.0939         D2E/DX2 =    0.0091             !
 ! D22   D(2,3,4,10)           179.9436         D2E/DX2 =    0.0085             !
 ! D23   D(9,3,4,5)            179.9215         D2E/DX2 =    0.0076             !
 ! D24   D(9,3,4,10)            -0.041          D2E/DX2 =    0.0086             !
 ! D25   D(3,4,5,6)             -0.139          D2E/DX2 =    0.0092             !
 ! D26   D(3,4,5,11)           179.9569         D2E/DX2 =    0.0078             !
 ! D27   D(10,4,5,6)           179.8237         D2E/DX2 =    0.008              !
 ! D28   D(10,4,5,11)           -0.0804         D2E/DX2 =    0.0083             !
 ! D29   D(4,5,6,1)              0.0621         D2E/DX2 =    0.009              !
 ! D30   D(4,5,6,12)          -179.846          D2E/DX2 =    0.0073             !
 ! D31   D(11,5,6,1)           179.9663         D2E/DX2 =    0.0083             !
 ! D32   D(11,5,6,12)            0.0582         D2E/DX2 =    0.0082             !
 ! D33   D(14,7,8,2)             0.2954         D2E/DX2 =    0.0066             !
 ! D34   D(14,7,8,15)         -176.8805         D2E/DX2 =    0.0058             !
 ! D35   D(18,7,8,2)           179.649          D2E/DX2 =    0.0051             !
 ! D36   D(18,7,8,15)            2.4732         D2E/DX2 =    0.0052             !
 ! D37   D(8,7,14,1)            -0.54           D2E/DX2 =    0.0075             !
 ! D38   D(8,7,14,13)         -175.4042         D2E/DX2 =    0.0029             !
 ! D39   D(18,7,14,1)         -179.8635         D2E/DX2 =    0.0058             !
 ! D40   D(18,7,14,13)           5.2722         D2E/DX2 =    0.002              !
 ! D41   D(8,7,18,19)          152.8337         D2E/DX2 =    0.0184             !
 ! D42   D(8,7,18,20)          -87.6081         D2E/DX2 =    0.0184             !
 ! D43   D(8,7,18,21)           33.5824         D2E/DX2 =    0.0113             !
 ! D44   D(14,7,18,19)         -27.9243         D2E/DX2 =    0.0167             !
 ! D45   D(14,7,18,20)          91.6339         D2E/DX2 =    0.0176             !
 ! D46   D(14,7,18,21)        -147.1757         D2E/DX2 =    0.0115             !
 ! D47   D(2,8,15,16)          -92.4233         D2E/DX2 =    0.016              !
 ! D48   D(2,8,15,17)           25.989          D2E/DX2 =    0.0143             !
 ! D49   D(2,8,15,22)          146.4459         D2E/DX2 =    0.0097             !
 ! D50   D(7,8,15,16)           83.8663         D2E/DX2 =    0.0184             !
 ! D51   D(7,8,15,17)         -157.7214         D2E/DX2 =    0.0171             !
 ! D52   D(7,8,15,22)          -37.2646         D2E/DX2 =    0.0095             !
 ! D53   D(8,15,22,21)          33.8057         D2E/DX2 =    0.0109             !
 ! D54   D(8,15,22,23)         -86.7827         D2E/DX2 =    0.0139             !
 ! D55   D(8,15,22,24)         156.8208         D2E/DX2 =    0.0208             !
 ! D56   D(16,15,22,21)        -87.6981         D2E/DX2 =    0.0172             !
 ! D57   D(16,15,22,23)        151.7135         D2E/DX2 =    0.0154             !
 ! D58   D(16,15,22,24)         35.3171         D2E/DX2 =    0.0181             !
 ! D59   D(17,15,22,21)        157.0148         D2E/DX2 =    0.0156             !
 ! D60   D(17,15,22,23)         36.4264         D2E/DX2 =    0.014              !
 ! D61   D(17,15,22,24)        -79.9701         D2E/DX2 =    0.018              !
 ! D62   D(7,18,21,22)         -35.1096         D2E/DX2 =    0.0098             !
 ! D63   D(7,18,21,31)         143.6598         D2E/DX2 =    0.0101             !
 ! D64   D(19,18,21,22)       -156.6289         D2E/DX2 =    0.015              !
 ! D65   D(19,18,21,31)         22.1405         D2E/DX2 =    0.0134             !
 ! D66   D(20,18,21,22)         86.6295         D2E/DX2 =    0.0161             !
 ! D67   D(20,18,21,31)        -94.6011         D2E/DX2 =    0.0149             !
 ! D68   D(18,21,22,15)          2.4686         D2E/DX2 =    0.0089             !
 ! D69   D(18,21,22,23)        123.3661         D2E/DX2 =    0.011              !
 ! D70   D(18,21,22,24)       -119.2504         D2E/DX2 =    0.0186             !
 ! D71   D(31,21,22,15)       -176.3826         D2E/DX2 =    0.0094             !
 ! D72   D(31,21,22,23)        -55.4851         D2E/DX2 =    0.0106             !
 ! D73   D(31,21,22,24)         61.8984         D2E/DX2 =    0.0187             !
 ! D74   D(18,21,31,32)       -177.3931         D2E/DX2 =    0.021              !
 ! D75   D(18,21,31,33)          2.4023         D2E/DX2 =    0.0167             !
 ! D76   D(22,21,31,32)          1.464          D2E/DX2 =    0.0193             !
 ! D77   D(22,21,31,33)       -178.7407         D2E/DX2 =    0.0185             !
 ! D78   D(15,22,24,25)        -91.0752         D2E/DX2 =    0.016              !
 ! D79   D(15,22,24,26)         85.0576         D2E/DX2 =    0.0161             !
 ! D80   D(21,22,24,25)         34.2257         D2E/DX2 =    0.0173             !
 ! D81   D(21,22,24,26)       -149.6415         D2E/DX2 =    0.018              !
 ! D82   D(23,22,24,25)        151.8815         D2E/DX2 =    0.0155             !
 ! D83   D(23,22,24,26)        -31.9857         D2E/DX2 =    0.0158             !
 ! D84   D(22,24,26,27)       -178.5072         D2E/DX2 =    0.0177             !
 ! D85   D(25,24,26,27)         -2.3241         D2E/DX2 =    0.0175             !
 ! D86   D(24,26,27,28)       -179.8211         D2E/DX2 =    0.024              !
 ! D87   D(24,26,27,29)        -60.4375         D2E/DX2 =    0.0237             !
 ! D88   D(24,26,27,30)         60.4708         D2E/DX2 =    0.0236             !
 ! D89   D(21,31,33,34)        179.3078         D2E/DX2 =    0.025              !
 ! D90   D(32,31,33,34)         -0.9032         D2E/DX2 =    0.0222             !
 ! D91   D(31,33,34,35)         62.6556         D2E/DX2 =    0.024              !
 ! D92   D(31,33,34,39)        -61.903          D2E/DX2 =    0.0232             !
 ! D93   D(31,33,34,43)       -179.5699         D2E/DX2 =    0.0205             !
 ! D94   D(33,34,35,36)        172.7268         D2E/DX2 =    0.0163             !
 ! D95   D(33,34,35,37)        -67.1057         D2E/DX2 =    0.0169             !
 ! D96   D(33,34,35,38)         54.0079         D2E/DX2 =    0.016              !
 ! D97   D(39,34,35,36)        -64.1438         D2E/DX2 =    0.0154             !
 ! D98   D(39,34,35,37)         56.0237         D2E/DX2 =    0.0158             !
 ! D99   D(39,34,35,38)        177.1372         D2E/DX2 =    0.0158             !
 ! D100  D(43,34,35,36)         60.2827         D2E/DX2 =    0.0158             !
 ! D101  D(43,34,35,37)       -179.5497         D2E/DX2 =    0.0166             !
 ! D102  D(43,34,35,38)        -58.4362         D2E/DX2 =    0.0159             !
 ! D103  D(33,34,39,40)       -172.5185         D2E/DX2 =    0.0162             !
 ! D104  D(33,34,39,41)        -53.7123         D2E/DX2 =    0.0159             !
 ! D105  D(33,34,39,42)         67.2822         D2E/DX2 =    0.0167             !
 ! D106  D(35,34,39,40)         64.2927         D2E/DX2 =    0.0153             !
 ! D107  D(35,34,39,41)       -176.901          D2E/DX2 =    0.0158             !
 ! D108  D(35,34,39,42)        -55.9066         D2E/DX2 =    0.0157             !
 ! D109  D(43,34,39,40)        -60.1631         D2E/DX2 =    0.0158             !
 ! D110  D(43,34,39,41)         58.6432         D2E/DX2 =    0.016              !
 ! D111  D(43,34,39,42)        179.6377         D2E/DX2 =    0.0165             !
 ! D112  D(33,34,43,44)        179.5266         D2E/DX2 =    0.0164             !
 ! D113  D(33,34,43,45)        -60.7401         D2E/DX2 =    0.0165             !
 ! D114  D(33,34,43,46)         59.744          D2E/DX2 =    0.0165             !
 ! D115  D(35,34,43,44)        -63.1265         D2E/DX2 =    0.0149             !
 ! D116  D(35,34,43,45)         56.6068         D2E/DX2 =    0.015              !
 ! D117  D(35,34,43,46)        177.0909         D2E/DX2 =    0.0153             !
 ! D118  D(39,34,43,44)         62.3257         D2E/DX2 =    0.015              !
 ! D119  D(39,34,43,45)       -177.941          D2E/DX2 =    0.0154             !
 ! D120  D(39,34,43,46)        -57.4569         D2E/DX2 =    0.0151             !
 --------------------------------------------------------------------------------
 Trust Radius=3.00D-01 FncErr=1.00D-07 GrdErr=1.00D-06
 Number of steps in this run=    264 maximum allowed number of steps=    276.
 GradGradGradGradGradGradGradGradGradGradGradGradGradGradGradGradGradGrad

                          Input orientation:                          
 ---------------------------------------------------------------------
 Center     Atomic      Atomic             Coordinates (Angstroms)
 Number     Number       Type             X           Y           Z
 ---------------------------------------------------------------------
      1          6           0        2.493725    0.706412   -0.582011
      2          6           0        1.786596   -0.392617   -0.016176
      3          6           0        2.510778   -1.386561    0.660497
      4          6           0        3.889466   -1.264460    0.764456
      5          6           0        4.566943   -0.166134    0.202785
      6          6           0        3.879250    0.831631   -0.477203
      7          6           0        0.306828    0.986886   -1.015017
      8          6           0        0.395970   -0.177349   -0.312545
      9          1           0        2.001774   -2.238975    1.097058
     10          1           0        4.457566   -2.026374    1.285900
     11          1           0        5.644273   -0.097682    0.300760
     12          1           0        4.404792    1.675507   -0.911022
     13          1           0        1.763980    2.419573   -1.622540
     14          7           0        1.563761    1.531197   -1.193932
     15          6           0       -0.842352   -0.976344   -0.063032
     16          1           0       -1.053874   -1.615604   -0.929461
     17          1           0       -0.737728   -1.640098    0.797313
     18          6           0       -0.985554    1.541633   -1.510119
     19          1           0       -0.947837    2.625069   -1.608218
     20          1           0       -1.234085    1.133968   -2.500073
     21          7           0       -2.047387    1.207354   -0.546126
     22          6           0       -2.068840   -0.055576    0.205337
     23          1           0       -2.097664    0.184546    1.269283
     24          6           0       -3.336804   -0.849788   -0.125122
     25          8           0       -3.884302   -0.873581   -1.198055
     26          8           0       -3.712301   -1.590264    0.933145
     27          6           0       -4.877722   -2.414809    0.744003
     28          1           0       -5.027165   -2.928283    1.691173
     29          1           0       -5.740991   -1.793460    0.503375
     30          1           0       -4.713048   -3.131971   -0.061506
     31          6           0       -3.077933    2.066535   -0.266243
     32          8           0       -3.935328    1.818715    0.563232
     33          8           0       -3.012186    3.193942   -1.010461
     34          6           0       -4.033677    4.256837   -0.884410
     35          6           0       -4.015110    4.840157    0.530377
     36          1           0       -4.680030    5.707283    0.573380
     37          1           0       -4.347072    4.107473    1.263878
     38          1           0       -3.007213    5.173327    0.792120
     39          6           0       -5.409144    3.710767   -1.274487
     40          1           0       -6.128597    4.533793   -1.306217
     41          1           0       -5.369923    3.254501   -2.266789
     42          1           0       -5.757640    2.967741   -0.559402
     43          6           0       -3.554867    5.292124   -1.903179
     44          1           0       -4.238611    6.144232   -1.918799
     45          1           0       -2.557313    5.656257   -1.645843
     46          1           0       -3.519563    4.859126   -2.905410
 ---------------------------------------------------------------------
                    Distance matrix (angstroms):
                    1          2          3          4          5
     1  C    0.000000
     2  C    1.424102   0.000000
     3  C    2.434061   1.403656   0.000000
     4  C    2.765032   2.406565   1.387983   0.000000
     5  C    2.382325   2.798136   2.434493   1.407399   0.000000
     6  C    1.395115   2.467900   2.843845   2.436271   1.389546
     7  C    2.246927   2.256198   3.646642   4.590248   4.578327
     8  C    2.292209   1.438060   2.623246   3.813955   4.202702
     9  H    3.425871   2.166709   1.084565   2.150275   3.417088
    10  H    3.848880   3.390965   2.142539   1.084045   2.155365
    11  H    3.369244   3.881894   3.407258   2.157715   1.083940
    12  H    2.167849   3.454394   3.928514   3.422893   2.158356
    13  H    2.133108   3.238723   4.500735   4.877247   4.227799
    14  N    1.385478   2.266677   3.584558   4.130361   3.721673
    15  C    3.772322   2.693381   3.454743   4.812259   5.476090
    16  H    4.254167   3.224602   3.909881   5.237295   5.914095
    17  H    4.225037   2.930902   3.261256   4.642532   5.537650
    18  C    3.696534   3.695674   5.050766   6.067427   6.056462
    19  H    4.071695   4.372431   5.762140   6.645112   6.440756
    20  H    4.214064   4.198181   5.510560   6.531491   6.530515
    21  N    4.568799   4.188100   5.381561   6.563056   6.796815
    22  C    4.692285   3.876474   4.790782   6.105360   6.636704
    23  H    4.978000   4.131949   4.906805   6.180630   6.758504
    24  C    6.051906   5.144910   5.924486   7.292618   7.940032
    25  O    6.599630   5.812680   6.679402   8.027185   8.595718
    26  O    6.788606   5.707314   6.232379   7.610615   8.432523
    27  C    8.114097   7.005731   7.460175   8.842359   9.723742
    28  H    8.656914   7.468064   7.762717   9.117752  10.094140
    29  H    8.673982   7.674429   8.263289   9.648508  10.439926
    30  H    8.181790   7.053473   7.466686   8.841552   9.745987
    31  C    5.743955   5.456520   6.634487   7.791182   7.978028
    32  O    6.624313   6.161665   7.199690   8.412719   8.738315
    33  O    6.056933   6.072917   7.367241   8.405979   8.378859
    34  C    7.436662   7.499789   8.778643   9.796921   9.732180
    35  C    7.790391   7.832014   9.020874   9.990168   9.940920
    36  H    8.820793   8.909187  10.101382  11.048889  10.960879
    37  H    7.859455   7.714353   8.807871   9.846199   9.942298
    38  H    7.218164   7.390107   8.573079   9.434513   9.285741
    39  C    8.482983   8.378531   9.615200  10.741243  10.804397
    40  H    9.461383   9.411908  10.656330  11.758784  11.779684
    41  H    8.436124   8.341612   9.602807  10.739913  10.795408
    42  H    8.555650   8.276630   9.424162  10.617475  10.816613
    43  C    7.704525   8.025478   9.379196  10.272446  10.009568
    44  H    8.756783   9.091397  10.436468  11.320521  11.039004
    45  H    7.151622   7.623270   8.978087   9.760472   9.384704
    46  H    7.668301   8.005236   9.385590  10.288825  10.015272
                    6          7          8          9         10
     6  C    0.000000
     7  C    3.616013   0.000000
     8  C    3.630206   1.362665   0.000000
     9  H    3.928337   4.211874   2.969156   0.000000
    10  H    3.407517   5.621617   4.740304   2.472200   0.000000
    11  H    2.141064   5.603203   5.284617   4.299654   2.469540
    12  H    1.084675   4.156721   4.456670   5.012988   4.305017
    13  H    2.882313   2.131893   3.214271   5.399521   5.956582
    14  N    2.522812   1.381364   2.249379   4.433360   5.213442
    15  C    5.072853   2.466001   1.494687   3.321008   5.568779
    16  H    5.525324   2.937989   2.133356   3.719187   5.954202
    17  H    5.389835   3.358077   2.157937   2.820172   5.232495
    18  C    5.023678   1.491014   2.509520   5.478549   7.083499
    19  H    5.272228   2.147025   3.367214   6.299019   7.696117
    20  H    5.507232   2.145096   3.026865   5.898040   7.531019
    21  N    5.938935   2.410558   2.818147   5.565334   7.491844
    22  C    6.052501   2.867017   2.521570   4.704497   6.902581
    23  H    6.260386   3.412236   2.975123   4.765344   6.918054
    24  C    7.417720   4.176282   3.797486   5.650131   8.007967
    25  O    7.981235   4.589162   4.426013   6.463569   8.779847
    26  O    8.092361   5.156591   4.519509   5.753116   8.189099
    27  C    9.418879   6.445559   5.825320   6.890793   9.359067
    28  H    9.907726   7.148670   6.402571   7.087601   9.536131
    29  H   10.020064   6.827294   6.398424   7.778261  10.231185
    30  H    9.471564   6.563026   5.907188   6.872302   9.334774
    31  C    7.069080   3.630828   4.135839   6.797016   8.714631
    32  O    7.945091   4.602031   4.848855   7.211033   9.260001
    33  O    7.304572   3.985846   4.844400   7.687524   9.397987
    34  C    8.632049   5.435956   6.293711   9.085618  10.783793
    35  C    8.910916   5.992920   6.733759   9.307961  10.931893
    36  H    9.906411   7.047971   7.821734  10.395372  11.992196
    37  H    9.024128   6.048984   6.583407   8.978478  10.730620
    38  H    8.239228   5.636923   6.436744   8.951266  10.382795
    39  C    9.757015   6.337127   7.052809   9.795170  11.697107
    40  H   10.702816   7.353913   8.108774  10.851223  12.720916
    41  H    9.727287   6.239752   6.988718   9.789569  11.708491
    42  H    9.871139   6.396025   6.915160   9.490113  11.519407
    43  C    8.786097   5.851204   6.932125   9.828282  11.310602
    44  H    9.808242   6.933690   8.001361  10.877314  12.355258
    45  H    8.128474   5.514007   6.673119   9.520686  10.808629
    46  H    8.766946   5.762733   6.886249   9.843167  11.340713
                   11         12         13         14         15
    11  H    0.000000
    12  H    2.479703   0.000000
    13  H    5.009224   2.834392   0.000000
    14  N    4.640897   2.858727   1.006481   0.000000
    15  C    6.555966   5.940027   4.556016   3.654596   0.000000
    16  H    6.977299   6.374071   4.970242   4.101745   1.097312
    17  H    6.584493   6.352729   5.347444   4.395341   1.091654
    18  C    7.065497   5.425189   2.888486   2.568870   2.907710
    19  H    7.383325   5.480729   2.719630   2.770617   3.920319
    20  H    7.528176   5.883475   3.378052   3.113156   3.247467
    21  N    7.847418   6.479423   4.141818   3.683058   2.540478
    22  C    7.713818   6.793439   4.915079   4.203759   1.556955
    23  H    7.807386   7.018449   5.316980   4.613776   2.167611
    24  C    9.022570   8.180896   6.240911   5.552205   2.498432
    25  O    9.676890   8.676942   6.551956   5.955196   3.248430
    26  O    9.495956   8.941667   7.252583   6.488821   3.099334
    27  C   10.783224  10.277882   8.548916   7.798670   4.359438
    28  H   11.127674  10.813330   9.257424   8.464697   4.939632
    29  H   11.512643  10.815321   8.865311   8.203267   4.998516
    30  H   10.798715  10.342559   8.672275   7.901003   4.430465
    31  C    9.004566   7.520626   5.040664   4.763666   3.781301
    32  O    9.772933   8.470627   6.133574   5.780162   4.215574
    33  O    9.353522   7.571466   4.877094   4.872133   4.795528
    34  C   10.678445   8.824496   6.126434   6.233477   6.184287
    35  C   10.850744   9.109741   6.625115   6.711651   6.652084
    36  H   11.847496  10.049509   7.560182   7.716736   7.733283
    37  H   10.882918   9.340223   6.966015   6.900433   6.315770
    38  H   10.142642   8.370977   6.014817   6.172789   6.575437
    39  C   11.796767  10.029343   7.296713   7.306053   6.655240
    40  H   12.752780  10.921458   8.176965   8.258363   7.736376
    41  H   11.795844   9.993817   7.211430   7.224733   6.576891
    42  H   11.838087  10.250294   7.616135   7.487937   6.321570
    43  C   10.887218   8.798890   6.051482   6.391241   7.073724
    44  H   11.897871   9.782307   7.070499   7.448024   8.104385
    45  H   10.206032   8.053399   5.399096   5.848384   7.031201
    46  H   10.900704   8.769744   5.959278   6.312246   7.021345
                   16         17         18         19         20
    16  H    0.000000
    17  H    1.755647   0.000000
    18  C    3.210915   3.938156   0.000000
    19  H    4.295959   4.901263   1.088522   0.000000
    20  H    3.171663   4.337576   1.099076   1.760888   0.000000
    21  N    3.017135   3.409988   1.472587   2.084937   2.117724
    22  C    2.179819   2.152442   2.582126   3.425126   3.071006
    23  H    3.027294   2.324114   3.286876   3.944397   3.981861
    24  C    2.538741   2.868914   3.628427   4.470052   3.741271
    25  O    2.938378   3.803941   3.785945   4.586023   3.570596
    26  O    3.246102   2.978089   4.818035   5.645335   5.034876
    27  C    4.249827   4.212193   5.990281   6.810088   6.032739
    28  H    4.937397   4.567020   6.823711   7.639804   6.961026
    29  H    4.904459   5.014236   6.147454   6.852485   6.156520
    30  H    4.054907   4.332022   6.151037   7.050719   6.020634
    31  C    4.253801   4.510748   2.490140   2.578791   3.042935
    32  O    4.724982   4.716230   3.616175   3.780277   4.141187
    33  O    5.193581   5.639960   2.662146   2.223166   3.102270
    34  C    6.585349   6.961704   4.129757   3.564964   4.494485
    35  C    7.250993   7.266788   4.921595   4.346075   5.536566
    36  H    8.308562   8.341217   5.944977   5.309300   6.498912
    37  H    6.957693   6.802913   5.057509   4.690549   5.718369
    38  H    7.271104   7.181459   4.751485   4.061560   5.504447
    39  C    6.888951   7.399070   4.932424   4.603626   5.056982
    40  H    7.981845   8.461870   5.953611   5.529440   6.077857
    41  H    6.643391   7.402908   4.767510   4.514946   4.653626
    42  H    6.577949   6.947832   5.070547   4.934738   5.252759
    43  C    7.410789   7.955164   4.563118   3.741228   4.799226
    44  H    8.446088   8.957078   5.650957   4.828060   5.870929
    45  H    7.460127   7.906750   4.406697   3.432190   4.788709
    46  H    7.204590   7.980519   4.401567   3.645201   4.389135
                   21         22         23         24         25
    21  N    0.000000
    22  C    1.469745   0.000000
    23  H    2.084316   1.091087   0.000000
    24  C    2.464077   1.532223   2.132998   0.000000
    25  O    2.851238   2.436092   3.224820   1.204784   0.000000
    26  O    3.575870   2.363458   2.422806   1.345077   2.255046
    27  C    4.774442   3.707554   3.842042   2.362012   2.670928
    28  H    5.566693   4.383131   4.295307   3.236725   3.724993
    29  H    4.873300   4.073544   4.215798   2.658128   2.681107
    30  H    5.115696   4.065371   4.428376   2.665793   2.660618
    31  C    1.370603   2.396667   2.619285   2.931189   3.187913
    32  O    2.273490   2.669238   2.558520   2.820101   3.217637
    33  O    2.256762   3.595474   3.884591   4.152223   4.164195
    34  C    3.655014   4.862616   4.997009   5.209584   5.142166
    35  C    4.269432   5.278430   5.088939   5.767604   5.970879
    36  H    5.332303   6.337532   6.136246   6.729587   6.861409
    37  H    4.120116   4.862286   4.522082   5.246370   5.575497
    38  H    4.294311   5.344744   5.093418   6.101465   6.426132
    39  C    4.254291   5.247175   5.465428   5.139484   4.831897
    40  H    5.319700   6.311001   6.465104   6.178353   5.855617
    41  H    4.265060   5.288210   5.712802   5.056233   4.515564
    42  H    4.106716   4.830374   4.948302   4.541208   4.321230
    43  C    4.560640   5.937341   6.186705   6.397822   6.214632
    44  H    5.573012   6.903440   7.089809   7.276459   7.063618
    45  H    4.611089   6.024161   6.216821   6.726724   6.678338
    46  H    4.590094   5.994634   6.426629   6.352566   5.992664
                   26         27         28         29         30
    26  O    0.000000
    27  C    1.440089   0.000000
    28  H    2.023306   1.087713   0.000000
    29  H    2.083645   1.090508   1.791154   0.000000
    30  H    2.089901   1.091002   1.792217   1.779710   0.000000
    31  C    3.900402   4.933790   5.707818   4.752237   5.453438
    32  O    3.436235   4.340911   4.999835   4.038789   5.050192
    33  O    5.211179   6.165748   6.988605   5.883218   6.618959
    34  C    6.131507   6.919176   7.697181   6.437932   7.465467
    35  C    6.450134   7.309191   7.919619   6.854508   8.024480
    36  H    7.370218   8.126289   8.714526   7.575730   8.862087
    37  H    5.742519   6.564451   7.081452   6.110842   7.368862
    38  H    6.801705   7.815428   8.397891   7.489529   8.521533
    39  C    5.987808   6.471428   7.281348   5.793741   6.984192
    40  H    6.953942   7.351949   8.116655   6.592344   7.894113
    41  H    6.038132   6.438028   7.349133   5.770045   6.788356
    42  H    5.214069   5.607580   6.353092   4.878402   6.208507
    43  C    7.445588   8.255564   9.091871   7.795906   8.700490
    44  H    8.260328   8.986443   9.796134   8.433922   9.472200
    45  H    7.777997   8.731424   9.535731   8.381720   9.186418
    46  H    7.507748   8.250633   9.167616   7.798171   8.565619
                   31         32         33         34         35
    31  C    0.000000
    32  O    1.218429   0.000000
    33  O    1.352490   2.284721   0.000000
    34  C    2.468400   2.837213   1.479553   0.000000
    35  C    3.034120   3.022674   2.467805   1.530435   0.000000
    36  H    4.065307   3.959248   3.406924   2.155624   1.093560
    37  H    2.849107   2.428755   2.790892   2.176159   1.088600
    38  H    3.282878   3.488152   2.677179   2.168948   1.093328
    39  C    3.025656   3.021457   2.466216   1.530444   2.544875
    40  H    4.058997   3.959409   3.405097   2.154835   2.816694
    41  H    3.265985   3.482609   2.672255   2.168225   3.489121
    42  H    2.842348   2.429278   2.791440   2.177027   2.780283
    43  C    3.648485   4.276974   2.343889   1.529369   2.517597
    44  H    4.550354   4.996254   3.321657   2.161994   2.783708
    45  H    3.880779   4.637420   2.583334   2.172052   2.743561
    46  H    3.867661   4.631246   2.573150   2.170601   3.471392
                   36         37         38         39         40
    36  H    0.000000
    37  H    1.773990   0.000000
    38  H    1.769539   1.775900   0.000000
    39  C    2.816433   2.780048   3.489873   0.000000
    40  H    2.647321   3.156100   3.815109   1.093614   0.000000
    41  H    3.815580   3.773512   4.315230   1.092877   1.770558
    42  H    3.154288   2.571584   3.775721   1.088523   1.774221
    43  C    2.751670   3.472929   2.752939   2.516801   2.748730
    44  H    2.568410   3.780157   3.131785   2.776155   2.557502
    45  H    3.071397   3.750793   2.525727   3.472143   3.758901
    46  H    3.764045   4.316563   3.746058   2.747573   3.077389
                   41         42         43         44         45
    41  H    0.000000
    42  H    1.774183   0.000000
    43  C    2.752916   3.472852   0.000000
    44  H    3.122740   3.774322   1.092629   0.000000
    45  H    3.750304   4.318630   1.092670   1.771832   0.000000
    46  H    2.531105   3.753676   1.092338   1.772549   1.774218
                   46
    46  H    0.000000
 Stoichiometry    C18H22N2O4
 Framework group  C1[X(C18H22N2O4)]
 Deg. of freedom   132
 Full point group                 C1      NOp   1
 Largest Abelian subgroup         C1      NOp   1
 Largest concise Abelian subgroup C1      NOp   1
                         Standard orientation:                         
 ---------------------------------------------------------------------
 Center     Atomic      Atomic             Coordinates (Angstroms)
 Number     Number       Type             X           Y           Z
 ---------------------------------------------------------------------
      1          6           0        3.605355   -1.358712    0.196677
      2          6           0        3.436924    0.032253   -0.058105
      3          6           0        4.544029    0.779823   -0.489044
      4          6           0        5.764162    0.140966   -0.661179
      5          6           0        5.906056   -1.236433   -0.409368
      6          6           0        4.830566   -2.002878    0.022743
      7          6           0        1.461820   -0.828190    0.611993
      8          6           0        2.057655    0.331976    0.217214
      9          1           0        4.449307    1.842213   -0.685602
     10          1           0        6.624888    0.709443   -0.994556
     11          1           0        6.871434   -1.707836   -0.553415
     12          1           0        4.944009   -3.063737    0.218265
     13          1           0        2.180590   -2.826236    0.802125
     14          7           0        2.382016   -1.858435    0.612934
     15          6           0        1.260897    1.596579    0.210387
     16          1           0        1.257974    2.040224    1.214013
     17          1           0        1.683534    2.345904   -0.461622
     18          6           0        0.022896   -0.915385    0.992801
     19          1           0       -0.380458   -1.911278    0.818498
     20          1           0       -0.114995   -0.690891    2.059833
     21          7           0       -0.744750    0.037710    0.173751
     22          6           0       -0.207249    1.341338   -0.240735
     23          1           0       -0.251022    1.394315   -1.329655
     24          6           0       -1.075562    2.475460    0.313798
     25          8           0       -1.645581    2.461507    1.375112
     26          8           0       -1.047062    3.533274   -0.516533
     27          6           0       -1.799161    4.686538   -0.094414
     28          1           0       -1.662276    5.426180   -0.880106
     29          1           0       -2.853397    4.428161    0.010637
     30          1           0       -1.422554    5.061891    0.858247
     31          6           0       -2.008348   -0.239353   -0.279137
     32          8           0       -2.633233    0.522887   -0.995432
     33          8           0       -2.450934   -1.439361    0.160552
     34          6           0       -3.798507   -1.936730   -0.194057
     35          6           0       -3.909618   -2.122500   -1.709106
     36          1           0       -4.859321   -2.610411   -1.945497
     37          1           0       -3.868216   -1.166509   -2.228158
     38          1           0       -3.100960   -2.760793   -2.075195
     39          6           0       -4.868157   -0.992736    0.360005
     40          1           0       -5.855692   -1.437507    0.208534
     41          1           0       -4.723703   -0.841849    1.432734
     42          1           0       -4.839118   -0.025330   -0.138157
     43          6           0       -3.846797   -3.287269    0.521961
     44          1           0       -4.812049   -3.768291    0.346622
     45          1           0       -3.060230   -3.949801    0.152785
     46          1           0       -3.715903   -3.157729    1.598663
 ---------------------------------------------------------------------
 Rotational constants (GHZ):      0.3460383      0.1441318      0.1086730
 Standard basis: 6-311+G(d,p) (5D, 7F)
 There are   684 symmetry adapted cartesian basis functions of A   symmetry.
 There are   660 symmetry adapted basis functions of A   symmetry.
   660 basis functions,  1040 primitive gaussians,   684 cartesian basis functions
    88 alpha electrons       88 beta electrons
       nuclear repulsion energy      2107.2400620875 Hartrees.
 NAtoms=   46 NActive=   46 NUniq=   46 SFac= 1.00D+00 NAtFMM=   60 NAOKFM=F Big=F
 Integral buffers will be    131072 words long.
 Raffenetti 2 integral format.
 Two-electron integral symmetry is turned on.
 One-electron integrals computed using PRISM.
 NBasis=   660 RedAO= T EigKep=  1.48D-06  NBF=   660
 NBsUse=   656 1.00D-06 EigRej=  9.36D-07 NBFU=   656
 Initial guess from the checkpoint file:  "ChemRevAminoAcids9_boc_Brimble.chk"
 B after Tr=     0.000000    0.000000    0.000000
         Rot=    1.000000    0.000000    0.000000    0.000000 Ang=   0.00 deg.
 Requested convergence on RMS density matrix=1.00D-08 within 128 cycles.
 Requested convergence on MAX density matrix=1.00D-06.
 Requested convergence on             energy=1.00D-06.
 No special actions if energy rises.
 SCF Done:  E(RB3LYP) =  -1109.91256721     A.U. after    1 cycles
            NFock=  1  Conv=0.71D-08     -V/T= 2.0041

 **********************************************************************

            Population analysis using the SCF density.

 **********************************************************************

 Orbital symmetries:
       Occupied  (A) (A) (A) (A) (A) (A) (A) (A) (A) (A) (A) (A)
                 (A) (A) (A) (A) (A) (A) (A) (A) (A) (A) (A) (A)
                 (A) (A) (A) (A) (A) (A) (A) (A) (A) (A) (A) (A)
                 (A) (A) (A) (A) (A) (A) (A) (A) (A) (A) (A) (A)
                 (A) (A) (A) (A) (A) (A) (A) (A) (A) (A) (A) (A)
                 (A) (A) (A) (A) (A) (A) (A) (A) (A) (A) (A) (A)
                 (A) (A) (A) (A) (A) (A) (A) (A) (A) (A) (A) (A)
                 (A) (A) (A) (A)
       Virtual   (A) (A) (A) (A) (A) (A) (A) (A) (A) (A) (A) (A)
                 (A) (A) (A) (A) (A) (A) (A) (A) (A) (A) (A) (A)
                 (A) (A) (A) (A) (A) (A) (A) (A) (A) (A) (A) (A)
                 (A) (A) (A) (A) (A) (A) (A) (A) (A) (A) (A) (A)
                 (A) (A) (A) (A) (A) (A) (A) (A) (A) (A) (A) (A)
                 (A) (A) (A) (A) (A) (A) (A) (A) (A) (A) (A) (A)
                 (A) (A) (A) (A) (A) (A) (A) (A) (A) (A) (A) (A)
                 (A) (A) (A) (A) (A) (A) (A) (A) (A) (A) (A) (A)
                 (A) (A) (A) (A) (A) (A) (A) (A) (A) (A) (A) (A)
                 (A) (A) (A) (A) (A) (A) (A) (A) (A) (A) (A) (A)
                 (A) (A) (A) (A) (A) (A) (A) (A) (A) (A) (A) (A)
                 (A) (A) (A) (A) (A) (A) (A) (A) (A) (A) (A) (A)
                 (A) (A) (A) (A) (A) (A) (A) (A) (A) (A) (A) (A)
                 (A) (A) (A) (A) (A) (A) (A) (A) (A) (A) (A) (A)
                 (A) (A) (A) (A) (A) (A) (A) (A) (A) (A) (A) (A)
                 (A) (A) (A) (A) (A) (A) (A) (A) (A) (A) (A) (A)
                 (A) (A) (A) (A) (A) (A) (A) (A) (A) (A) (A) (A)
                 (A) (A) (A) (A) (A) (A) (A) (A) (A) (A) (A) (A)
                 (A) (A) (A) (A) (A) (A) (A) (A) (A) (A) (A) (A)
                 (A) (A) (A) (A) (A) (A) (A) (A) (A) (A) (A) (A)
                 (A) (A) (A) (A) (A) (A) (A) (A) (A) (A) (A) (A)
                 (A) (A) (A) (A) (A) (A) (A) (A) (A) (A) (A) (A)
                 (A) (A) (A) (A) (A) (A) (A) (A) (A) (A) (A) (A)
                 (A) (A) (A) (A) (A) (A) (A) (A) (A) (A) (A) (A)
                 (A) (A) (A) (A) (A) (A) (A) (A) (A) (A) (A) (A)
                 (A) (A) (A) (A) (A) (A) (A) (A) (A) (A) (A) (A)
                 (A) (A) (A) (A) (A) (A) (A) (A) (A) (A) (A) (A)
                 (A) (A) (A) (A) (A) (A) (A) (A) (A) (A) (A) (A)
                 (A) (A) (A) (A) (A) (A) (A) (A) (A) (A) (A) (A)
                 (A) (A) (A) (A) (A) (A) (A) (A) (A) (A) (A) (A)
                 (A) (A) (A) (A) (A) (A) (A) (A) (A) (A) (A) (A)
                 (A) (A) (A) (A) (A) (A) (A) (A) (A) (A) (A) (A)
                 (A) (A) (A) (A) (A) (A) (A) (A) (A) (A) (A) (A)
                 (A) (A) (A) (A) (A) (A) (A) (A) (A) (A) (A) (A)
                 (A) (A) (A) (A) (A) (A) (A) (A) (A) (A) (A) (A)
                 (A) (A) (A) (A) (A) (A) (A) (A) (A) (A) (A) (A)
                 (A) (A) (A) (A) (A) (A) (A) (A) (A) (A) (A) (A)
                 (A) (A) (A) (A) (A) (A) (A) (A) (A) (A) (A) (A)
                 (A) (A) (A) (A) (A) (A) (A) (A) (A) (A) (A) (A)
                 (A) (A) (A) (A) (A) (A) (A) (A) (A) (A) (A) (A)
                 (A) (A) (A) (A) (A) (A) (A) (A) (A) (A) (A) (A)
                 (A) (A) (A) (A) (A) (A) (A) (A) (A) (A) (A) (A)
                 (A) (A) (A) (A) (A) (A) (A) (A) (A) (A) (A) (A)
                 (A) (A) (A) (A) (A) (A) (A) (A) (A) (A) (A) (A)
                 (A) (A) (A) (A) (A) (A) (A) (A) (A) (A) (A) (A)
                 (A) (A) (A) (A) (A) (A) (A) (A) (A) (A) (A) (A)
                 (A) (A) (A) (A) (A) (A) (A) (A) (A) (A) (A) (A)
                 (A) (A) (A) (A)
 The electronic state is 1-A.
 Alpha  occ. eigenvalues --  -19.17114 -19.15777 -19.11188 -19.09158 -14.36632
 Alpha  occ. eigenvalues --  -14.35001 -10.31748 -10.30038 -10.24827 -10.23160
 Alpha  occ. eigenvalues --  -10.22775 -10.22545 -10.21367 -10.21234 -10.19378
 Alpha  occ. eigenvalues --  -10.17906 -10.17831 -10.17440 -10.17273 -10.17151
 Alpha  occ. eigenvalues --  -10.16872 -10.16824 -10.16084 -10.15878  -1.11232
 Alpha  occ. eigenvalues --   -1.10351  -1.02518  -1.01534  -0.99325  -0.94956
 Alpha  occ. eigenvalues --   -0.84885  -0.82730  -0.80947  -0.79149  -0.75974
 Alpha  occ. eigenvalues --   -0.74414  -0.72981  -0.70031  -0.69685  -0.69231
 Alpha  occ. eigenvalues --   -0.67284  -0.62563  -0.62066  -0.59772  -0.57275
 Alpha  occ. eigenvalues --   -0.56997  -0.54569  -0.54016  -0.52637  -0.51547
 Alpha  occ. eigenvalues --   -0.50013  -0.48929  -0.48747  -0.47895  -0.47451
 Alpha  occ. eigenvalues --   -0.46657  -0.46284  -0.45208  -0.44571  -0.44383
 Alpha  occ. eigenvalues --   -0.43944  -0.43770  -0.43297  -0.42009  -0.41967
 Alpha  occ. eigenvalues --   -0.41536  -0.40354  -0.39815  -0.39586  -0.38735
 Alpha  occ. eigenvalues --   -0.38064  -0.37520  -0.37317  -0.36435  -0.36001
 Alpha  occ. eigenvalues --   -0.35579  -0.35346  -0.34323  -0.34131  -0.34056
 Alpha  occ. eigenvalues --   -0.31157  -0.30057  -0.28665  -0.28332  -0.27552
 Alpha  occ. eigenvalues --   -0.25305  -0.23200  -0.21105
 Alpha virt. eigenvalues --   -0.02495  -0.01304   0.00131   0.00338   0.00539
 Alpha virt. eigenvalues --    0.00641   0.01278   0.01844   0.02422   0.02852
 Alpha virt. eigenvalues --    0.03171   0.03199   0.03462   0.03842   0.04076
 Alpha virt. eigenvalues --    0.04520   0.04603   0.05153   0.05318   0.05753
 Alpha virt. eigenvalues --    0.05860   0.06218   0.06461   0.06757   0.07163
 Alpha virt. eigenvalues --    0.07264   0.08011   0.08252   0.08696   0.09133
 Alpha virt. eigenvalues --    0.09679   0.09701   0.10144   0.10292   0.10787
 Alpha virt. eigenvalues --    0.11240   0.11449   0.11691   0.11984   0.12460
 Alpha virt. eigenvalues --    0.12596   0.13201   0.13347   0.13533   0.13855
 Alpha virt. eigenvalues --    0.14057   0.14264   0.14681   0.14937   0.15388
 Alpha virt. eigenvalues --    0.15793   0.15981   0.16214   0.16416   0.16815
 Alpha virt. eigenvalues --    0.17033   0.17177   0.17575   0.17992   0.18253
 Alpha virt. eigenvalues --    0.18481   0.18545   0.18988   0.19236   0.19390
 Alpha virt. eigenvalues --    0.19702   0.20281   0.20311   0.20362   0.20655
 Alpha virt. eigenvalues --    0.20892   0.21174   0.21392   0.21727   0.21969
 Alpha virt. eigenvalues --    0.22053   0.22429   0.22756   0.23198   0.23325
 Alpha virt. eigenvalues --    0.23663   0.23740   0.24301   0.24676   0.24844
 Alpha virt. eigenvalues --    0.24932   0.25253   0.25338   0.25719   0.25882
 Alpha virt. eigenvalues --    0.26196   0.26421   0.27007   0.27168   0.27416
 Alpha virt. eigenvalues --    0.27601   0.27842   0.28308   0.28535   0.28843
 Alpha virt. eigenvalues --    0.28979   0.29688   0.29866   0.30196   0.30934
 Alpha virt. eigenvalues --    0.31034   0.31369   0.31550   0.32271   0.32424
 Alpha virt. eigenvalues --    0.32543   0.33149   0.33510   0.33597   0.34344
 Alpha virt. eigenvalues --    0.34467   0.34900   0.35097   0.35518   0.36165
 Alpha virt. eigenvalues --    0.36274   0.36620   0.37198   0.37463   0.38656
 Alpha virt. eigenvalues --    0.38905   0.39194   0.39791   0.40200   0.40742
 Alpha virt. eigenvalues --    0.41137   0.41306   0.41548   0.42244   0.42808
 Alpha virt. eigenvalues --    0.43628   0.44355   0.45176   0.45734   0.46869
 Alpha virt. eigenvalues --    0.47505   0.47737   0.48471   0.49055   0.50093
 Alpha virt. eigenvalues --    0.51016   0.51174   0.52039   0.52409   0.52468
 Alpha virt. eigenvalues --    0.53176   0.53820   0.54285   0.54902   0.55226
 Alpha virt. eigenvalues --    0.55405   0.55665   0.56067   0.57073   0.57451
 Alpha virt. eigenvalues --    0.57608   0.58544   0.58785   0.58974   0.59341
 Alpha virt. eigenvalues --    0.60414   0.60688   0.61303   0.62277   0.62516
 Alpha virt. eigenvalues --    0.62797   0.63162   0.63867   0.64340   0.64873
 Alpha virt. eigenvalues --    0.64998   0.65657   0.66122   0.66448   0.66927
 Alpha virt. eigenvalues --    0.67092   0.68057   0.68887   0.69157   0.69289
 Alpha virt. eigenvalues --    0.69709   0.70092   0.70728   0.70826   0.71155
 Alpha virt. eigenvalues --    0.71844   0.72215   0.72926   0.73183   0.73690
 Alpha virt. eigenvalues --    0.74382   0.74771   0.75300   0.75611   0.76075
 Alpha virt. eigenvalues --    0.76188   0.76969   0.77492   0.77866   0.78290
 Alpha virt. eigenvalues --    0.79127   0.79884   0.79968   0.80897   0.81340
 Alpha virt. eigenvalues --    0.82130   0.82877   0.82989   0.84242   0.85454
 Alpha virt. eigenvalues --    0.86320   0.87056   0.87995   0.88363   0.88989
 Alpha virt. eigenvalues --    0.89310   0.91128   0.91520   0.93028   0.93664
 Alpha virt. eigenvalues --    0.94342   0.95822   0.97001   0.97521   0.97918
 Alpha virt. eigenvalues --    0.99073   1.00183   1.01486   1.01889   1.02474
 Alpha virt. eigenvalues --    1.03023   1.03293   1.04181   1.04625   1.05702
 Alpha virt. eigenvalues --    1.06343   1.06590   1.07462   1.08976   1.09792
 Alpha virt. eigenvalues --    1.11969   1.12656   1.14523   1.14689   1.15511
 Alpha virt. eigenvalues --    1.15871   1.17547   1.18592   1.19234   1.19605
 Alpha virt. eigenvalues --    1.20392   1.20942   1.21561   1.23839   1.25453
 Alpha virt. eigenvalues --    1.26175   1.26865   1.28361   1.29153   1.30543
 Alpha virt. eigenvalues --    1.31063   1.31608   1.32683   1.33854   1.35046
 Alpha virt. eigenvalues --    1.35597   1.37053   1.37768   1.38846   1.41224
 Alpha virt. eigenvalues --    1.42330   1.42916   1.43772   1.44047   1.44346
 Alpha virt. eigenvalues --    1.45069   1.45284   1.46421   1.46923   1.47388
 Alpha virt. eigenvalues --    1.48673   1.49770   1.50533   1.50872   1.51746
 Alpha virt. eigenvalues --    1.52621   1.53358   1.53794   1.54174   1.54600
 Alpha virt. eigenvalues --    1.55215   1.55917   1.56189   1.56612   1.57001
 Alpha virt. eigenvalues --    1.57224   1.57572   1.57881   1.58420   1.59567
 Alpha virt. eigenvalues --    1.61706   1.62561   1.62989   1.63483   1.64410
 Alpha virt. eigenvalues --    1.65684   1.65871   1.66188   1.66643   1.67471
 Alpha virt. eigenvalues --    1.68142   1.68362   1.68537   1.70139   1.71303
 Alpha virt. eigenvalues --    1.71481   1.72004   1.72890   1.74259   1.74806
 Alpha virt. eigenvalues --    1.75063   1.75136   1.75516   1.76137   1.77308
 Alpha virt. eigenvalues --    1.78158   1.78967   1.79884   1.80594   1.82441
 Alpha virt. eigenvalues --    1.83641   1.83796   1.84971   1.85648   1.86575
 Alpha virt. eigenvalues --    1.87265   1.87756   1.88527   1.89041   1.90288
 Alpha virt. eigenvalues --    1.90868   1.91414   1.92041   1.93320   1.93914
 Alpha virt. eigenvalues --    1.94830   1.95217   1.95510   1.96608   1.96684
 Alpha virt. eigenvalues --    1.97857   1.99612   1.99953   2.00416   2.00896
 Alpha virt. eigenvalues --    2.02445   2.03099   2.06377   2.06737   2.08297
 Alpha virt. eigenvalues --    2.09065   2.09739   2.10817   2.11108   2.11588
 Alpha virt. eigenvalues --    2.12671   2.14161   2.15967   2.17113   2.17252
 Alpha virt. eigenvalues --    2.18920   2.20491   2.22382   2.23395   2.24714
 Alpha virt. eigenvalues --    2.25748   2.27664   2.28116   2.28511   2.30796
 Alpha virt. eigenvalues --    2.32106   2.32939   2.33974   2.36044   2.36850
 Alpha virt. eigenvalues --    2.40183   2.40921   2.42508   2.42863   2.43857
 Alpha virt. eigenvalues --    2.44754   2.45221   2.46282   2.47606   2.49515
 Alpha virt. eigenvalues --    2.49893   2.50152   2.51240   2.51865   2.52140
 Alpha virt. eigenvalues --    2.53226   2.53276   2.54118   2.54746   2.55713
 Alpha virt. eigenvalues --    2.56134   2.56162   2.57551   2.58327   2.59246
 Alpha virt. eigenvalues --    2.60697   2.61428   2.62498   2.63516   2.64684
 Alpha virt. eigenvalues --    2.65662   2.65957   2.66938   2.68889   2.69938
 Alpha virt. eigenvalues --    2.70682   2.71030   2.72742   2.73128   2.73306
 Alpha virt. eigenvalues --    2.73718   2.74284   2.75533   2.76427   2.77156
 Alpha virt. eigenvalues --    2.77630   2.78132   2.78552   2.80158   2.81088
 Alpha virt. eigenvalues --    2.81786   2.82428   2.82765   2.83617   2.85964
 Alpha virt. eigenvalues --    2.87423   2.87951   2.88582   2.90713   2.91797
 Alpha virt. eigenvalues --    2.92796   2.94207   2.94725   2.95063   2.95940
 Alpha virt. eigenvalues --    2.96672   2.98485   3.00239   3.01341   3.02634
 Alpha virt. eigenvalues --    3.03836   3.04982   3.06416   3.07454   3.07751
 Alpha virt. eigenvalues --    3.09263   3.10608   3.10984   3.13889   3.14703
 Alpha virt. eigenvalues --    3.16413   3.17125   3.19249   3.19996   3.22557
 Alpha virt. eigenvalues --    3.23399   3.24973   3.25165   3.27347   3.28816
 Alpha virt. eigenvalues --    3.32139   3.34390   3.39025   3.40171   3.40969
 Alpha virt. eigenvalues --    3.43555   3.47822   3.48721   3.54184   3.55330
 Alpha virt. eigenvalues --    3.57055   3.59186   3.60523   3.61762   3.63337
 Alpha virt. eigenvalues --    3.64421   3.66533   3.75562   3.77229   3.78216
 Alpha virt. eigenvalues --    3.78369   3.79144   3.79416   3.81000   3.81594
 Alpha virt. eigenvalues --    3.83346   3.85470   3.86029   3.88079   3.88251
 Alpha virt. eigenvalues --    3.90877   3.95899   4.00143   4.03796   4.04880
 Alpha virt. eigenvalues --    4.05172   4.11860   4.13321   4.13990   4.16725
 Alpha virt. eigenvalues --    4.19087   4.19801   4.23906   4.27655   4.32926
 Alpha virt. eigenvalues --    4.39515   4.49506   4.83059   4.91072   4.92488
 Alpha virt. eigenvalues --    4.96757   5.03768   5.12409   5.12746   5.16199
 Alpha virt. eigenvalues --    5.19592   5.27100   5.33385   5.39583   5.43270
 Alpha virt. eigenvalues --    5.64344   5.76221   5.88355   5.93542  23.61127
 Alpha virt. eigenvalues --   23.74912  23.80425  23.82768  23.87473  23.88121
 Alpha virt. eigenvalues --   23.91536  23.91982  23.93262  23.93412  23.97643
 Alpha virt. eigenvalues --   23.97944  23.99197  24.00587  24.05423  24.10719
 Alpha virt. eigenvalues --   24.16372  24.19231  35.57667  35.66909  49.92175
 Alpha virt. eigenvalues --   49.95883  50.04484  50.06402
          Condensed to atoms (all electrons):
               1          2          3          4          5          6
     1  C   17.146049  -0.255817  -0.493645  -1.215919   1.023423  -4.276494
     2  C   -0.255817   9.311934  -1.128029  -0.280446  -0.910761  -0.432764
     3  C   -0.493645  -1.128029  10.250848  -0.905658   0.640709   1.169079
     4  C   -1.215919  -0.280446  -0.905658   6.860297   0.209822   0.036084
     5  C    1.023423  -0.910761   0.640709   0.209822   5.828157   0.134532
     6  C   -4.276494  -0.432764   1.169079   0.036084   0.134532   9.943243
     7  C   -0.325703  -1.845762  -2.520298   0.243307  -0.338864  -0.527791
     8  C   -1.863064   2.189613  -1.802096   0.662242  -0.571400  -0.508753
     9  H   -0.021075  -0.041833   0.353150  -0.016124  -0.000545  -0.005983
    10  H    0.007078   0.052001  -0.076474   0.393600  -0.016061  -0.014392
    11  H    0.039737   0.050803  -0.058171   0.010801   0.350490  -0.064763
    12  H   -0.067017  -0.004128  -0.010990  -0.001773   0.043824   0.377132
    13  H   -0.028522   0.050125  -0.004714   0.003450  -0.003922  -0.043155
    14  N    0.186261   0.116584   0.015600   0.030661   0.000072  -0.337648
    15  C   -3.129585  -1.998566   0.979780   0.252014  -0.174373   0.710647
    16  H    0.013767  -0.014966  -0.024950  -0.006792  -0.000805   0.001115
    17  H    0.020361  -0.000158   0.040991   0.009070   0.002422  -0.001660
    18  C   -0.706377  -0.659375   0.279979   0.029579  -0.059797   0.694380
    19  H    0.022733  -0.004390  -0.001512  -0.000178   0.000722  -0.000664
    20  H   -0.000941  -0.015641  -0.006766  -0.000490  -0.000399  -0.007059
    21  N   -0.059860  -0.019389   0.011982   0.004390  -0.002987   0.014219
    22  C    0.218735   0.753606  -0.275951  -0.028666   0.021860  -0.181469
    23  H   -0.000130  -0.009679   0.001430  -0.000411  -0.000177   0.002035
    24  C    0.023836  -0.179360   0.031798  -0.027806   0.003012   0.010820
    25  O    0.000907   0.003367   0.000374  -0.000040   0.000008   0.000260
    26  O    0.001095   0.002363  -0.001472   0.000223  -0.000066   0.000598
    27  C   -0.001383  -0.010048  -0.006318  -0.000264  -0.000132  -0.000102
    28  H    0.000035   0.000221   0.000024  -0.000007   0.000000   0.000001
    29  H    0.000037   0.000119   0.000012  -0.000001   0.000000   0.000000
    30  H   -0.000170  -0.000413   0.000008   0.000027  -0.000001  -0.000005
    31  C    0.091855   0.004400   0.005213  -0.005451   0.000242   0.017694
    32  O    0.000502  -0.000614   0.001413   0.000086   0.000008   0.000182
    33  O    0.009960  -0.009159  -0.000152  -0.000243   0.000023   0.001581
    34  C   -0.002861  -0.006541  -0.001119  -0.000011   0.000047  -0.000290
    35  C    0.000908  -0.004167   0.000440   0.000077  -0.000120   0.000421
    36  H   -0.000003   0.000009   0.000000   0.000000   0.000000   0.000000
    37  H   -0.000024  -0.000012  -0.000009   0.000000   0.000000  -0.000004
    38  H   -0.000018  -0.000116  -0.000008   0.000001   0.000000  -0.000009
    39  C    0.004042   0.001949  -0.000546  -0.000130   0.000069   0.000055
    40  H   -0.000001  -0.000005   0.000000   0.000000   0.000000   0.000000
    41  H    0.000009   0.000029   0.000001   0.000000   0.000000   0.000000
    42  H    0.000008   0.000019   0.000003   0.000000   0.000000   0.000000
    43  C   -0.000966   0.005008   0.000598   0.000056  -0.000003   0.000238
    44  H    0.000001  -0.000001   0.000000   0.000000   0.000000   0.000000
    45  H   -0.000094   0.000003   0.000002   0.000000   0.000000  -0.000002
    46  H    0.000016  -0.000008   0.000000   0.000000   0.000000   0.000002
               7          8          9         10         11         12
     1  C   -0.325703  -1.863064  -0.021075   0.007078   0.039737  -0.067017
     2  C   -1.845762   2.189613  -0.041833   0.052001   0.050803  -0.004128
     3  C   -2.520298  -1.802096   0.353150  -0.076474  -0.058171  -0.010990
     4  C    0.243307   0.662242  -0.016124   0.393600   0.010801  -0.001773
     5  C   -0.338864  -0.571400  -0.000545  -0.016061   0.350490   0.043824
     6  C   -0.527791  -0.508753  -0.005983  -0.014392  -0.064763   0.377132
     7  C   11.983496   0.618363   0.018082   0.000263   0.007909   0.024286
     8  C    0.618363   9.644696   0.027542  -0.000915   0.010422  -0.009461
     9  H    0.018082   0.027542   0.556180  -0.007658  -0.000258   0.000068
    10  H    0.000263  -0.000915  -0.007658   0.547815  -0.007636  -0.000278
    11  H    0.007909   0.010422  -0.000258  -0.007636   0.547628  -0.007771
    12  H    0.024286  -0.009461   0.000068  -0.000278  -0.007771   0.555828
    13  H   -0.033155   0.034425   0.000013   0.000000   0.000011   0.002338
    14  N   -0.081404   0.135172  -0.001216   0.000878  -0.000881  -0.007581
    15  C   -0.263125  -1.549718   0.024961   0.000988   0.000187  -0.000581
    16  H    0.024084  -0.010155  -0.000125  -0.000001   0.000000   0.000000
    17  H   -0.013881  -0.044803   0.000735   0.000005  -0.000001   0.000000
    18  C   -0.121759  -1.772181   0.000802  -0.000280  -0.000119   0.000590
    19  H   -0.012980   0.023386   0.000000   0.000000   0.000000   0.000001
    20  H    0.018709  -0.003108   0.000001   0.000000   0.000000   0.000000
    21  N    0.007559   0.035992  -0.000183  -0.000006   0.000001   0.000014
    22  C   -0.186355  -0.133609  -0.000295   0.000076  -0.000053  -0.000029
    23  H   -0.011573  -0.061442  -0.000024   0.000000   0.000000   0.000000
    24  C   -0.032492   0.172137   0.001416   0.000020  -0.000006   0.000010
    25  O    0.006936  -0.015939   0.000000   0.000000   0.000000   0.000000
    26  O    0.013829  -0.040977  -0.000006   0.000000   0.000000   0.000000
    27  C    0.023749  -0.021757   0.000025   0.000000   0.000000   0.000000
    28  H   -0.000360   0.000816   0.000000   0.000000   0.000000   0.000000
    29  H   -0.000093   0.001268   0.000000   0.000000   0.000000   0.000000
    30  H    0.000572  -0.003721   0.000000   0.000000   0.000000   0.000000
    31  C   -0.182885  -0.230511  -0.000363  -0.000005   0.000001  -0.000017
    32  O   -0.007619  -0.002868  -0.000001   0.000000   0.000000   0.000000
    33  O   -0.033032  -0.036035   0.000000   0.000000   0.000000   0.000000
    34  C    0.000032  -0.008703  -0.000002   0.000000   0.000000   0.000000
    35  C   -0.002323  -0.033271   0.000000   0.000000   0.000000   0.000000
    36  H    0.000102   0.000189   0.000000   0.000000   0.000000   0.000000
    37  H    0.000445  -0.000317   0.000000   0.000000   0.000000   0.000000
    38  H    0.000174  -0.000438   0.000000   0.000000   0.000000   0.000000
    39  C   -0.002176   0.023179   0.000000   0.000000   0.000000   0.000000
    40  H   -0.000068  -0.000167   0.000000   0.000000   0.000000   0.000000
    41  H    0.000277   0.000443   0.000000   0.000000   0.000000   0.000000
    42  H   -0.000277   0.000223   0.000000   0.000000   0.000000   0.000000
    43  C   -0.006427   0.004641   0.000000   0.000000   0.000000   0.000000
    44  H    0.000164   0.000009   0.000000   0.000000   0.000000   0.000000
    45  H   -0.000129   0.000546   0.000000   0.000000   0.000000   0.000000
    46  H   -0.000295  -0.000176   0.000000   0.000000   0.000000   0.000000
              13         14         15         16         17         18
     1  C   -0.028522   0.186261  -3.129585   0.013767   0.020361  -0.706377
     2  C    0.050125   0.116584  -1.998566  -0.014966  -0.000158  -0.659375
     3  C   -0.004714   0.015600   0.979780  -0.024950   0.040991   0.279979
     4  C    0.003450   0.030661   0.252014  -0.006792   0.009070   0.029579
     5  C   -0.003922   0.000072  -0.174373  -0.000805   0.002422  -0.059797
     6  C   -0.043155  -0.337648   0.710647   0.001115  -0.001660   0.694380
     7  C   -0.033155  -0.081404  -0.263125   0.024084  -0.013881  -0.121759
     8  C    0.034425   0.135172  -1.549718  -0.010155  -0.044803  -1.772181
     9  H    0.000013  -0.001216   0.024961  -0.000125   0.000735   0.000802
    10  H    0.000000   0.000878   0.000988  -0.000001   0.000005  -0.000280
    11  H    0.000011  -0.000881   0.000187   0.000000  -0.000001  -0.000119
    12  H    0.002338  -0.007581  -0.000581   0.000000   0.000000   0.000590
    13  H    0.403337   0.372801  -0.001704  -0.000033   0.000014  -0.028776
    14  N    0.372801   6.824055  -0.029247  -0.000636  -0.000851  -0.183625
    15  C   -0.001704  -0.029247  12.481792   0.428430   0.336406   1.892783
    16  H   -0.000033  -0.000636   0.428430   0.507216  -0.033032   0.005201
    17  H    0.000014  -0.000851   0.336406  -0.033032   0.527651  -0.005458
    18  C   -0.028776  -0.183625   1.892783   0.005201  -0.005458   7.155041
    19  H    0.002851  -0.004301  -0.025968  -0.000216   0.000047   0.396153
    20  H   -0.000297   0.004788  -0.013600   0.002487  -0.000177   0.409769
    21  N   -0.000585   0.001846  -0.205240  -0.003534   0.025793   0.029162
    22  C   -0.000230   0.011337  -2.909616  -0.065990  -0.043441  -0.870943
    23  H   -0.000014  -0.000958   0.055452   0.006405  -0.011468   0.024471
    24  C    0.000251   0.001795  -0.392662  -0.013904   0.020094   0.008156
    25  O   -0.000003  -0.000054  -0.143575   0.004702  -0.000455  -0.010808
    26  O    0.000002  -0.000354  -0.021061   0.001086   0.001513   0.012487
    27  C    0.000000  -0.000130   0.003347   0.000830  -0.000852  -0.002189
    28  H    0.000000   0.000000  -0.003354  -0.000004  -0.000016   0.000137
    29  H    0.000000  -0.000001   0.002646   0.000004  -0.000018   0.000356
    30  H    0.000000   0.000000   0.009563  -0.000035   0.000108  -0.000417
    31  C   -0.002773   0.022581   0.002642  -0.013272   0.002291  -0.047625
    32  O    0.000019  -0.000526   0.005514  -0.000159   0.000410   0.051164
    33  O   -0.000394   0.001051   0.006024  -0.000158   0.000078   0.050193
    34  C   -0.000505  -0.001562  -0.012276   0.000021   0.000125  -0.013035
    35  C    0.000073   0.001497   0.025419  -0.000134  -0.000032   0.012926
    36  H    0.000000   0.000001  -0.000095   0.000000   0.000000   0.000177
    37  H    0.000000   0.000007  -0.000594   0.000000   0.000000  -0.001131
    38  H    0.000000  -0.000024   0.000260   0.000000   0.000000   0.001383
    39  C   -0.000075   0.000720  -0.035957   0.000082  -0.000020  -0.005043
    40  H    0.000000  -0.000001   0.000199   0.000000   0.000000  -0.000346
    41  H    0.000000   0.000001  -0.000164   0.000000   0.000000   0.001577
    42  H    0.000000   0.000005  -0.000755   0.000000   0.000000  -0.000940
    43  C    0.000201  -0.000107   0.008654  -0.000023   0.000000  -0.027361
    44  H    0.000000   0.000001  -0.000003   0.000000   0.000000   0.000282
    45  H    0.000001  -0.000023  -0.000129   0.000000   0.000000  -0.001304
    46  H    0.000000  -0.000013   0.000087   0.000000   0.000000  -0.001318
              19         20         21         22         23         24
     1  C    0.022733  -0.000941  -0.059860   0.218735  -0.000130   0.023836
     2  C   -0.004390  -0.015641  -0.019389   0.753606  -0.009679  -0.179360
     3  C   -0.001512  -0.006766   0.011982  -0.275951   0.001430   0.031798
     4  C   -0.000178  -0.000490   0.004390  -0.028666  -0.000411  -0.027806
     5  C    0.000722  -0.000399  -0.002987   0.021860  -0.000177   0.003012
     6  C   -0.000664  -0.007059   0.014219  -0.181469   0.002035   0.010820
     7  C   -0.012980   0.018709   0.007559  -0.186355  -0.011573  -0.032492
     8  C    0.023386  -0.003108   0.035992  -0.133609  -0.061442   0.172137
     9  H    0.000000   0.000001  -0.000183  -0.000295  -0.000024   0.001416
    10  H    0.000000   0.000000  -0.000006   0.000076   0.000000   0.000020
    11  H    0.000000   0.000000   0.000001  -0.000053   0.000000  -0.000006
    12  H    0.000001   0.000000   0.000014  -0.000029   0.000000   0.000010
    13  H    0.002851  -0.000297  -0.000585  -0.000230  -0.000014   0.000251
    14  N   -0.004301   0.004788   0.001846   0.011337  -0.000958   0.001795
    15  C   -0.025968  -0.013600  -0.205240  -2.909616   0.055452  -0.392662
    16  H   -0.000216   0.002487  -0.003534  -0.065990   0.006405  -0.013904
    17  H    0.000047  -0.000177   0.025793  -0.043441  -0.011468   0.020094
    18  C    0.396153   0.409769   0.029162  -0.870943   0.024471   0.008156
    19  H    0.523007  -0.038397  -0.074305   0.028162  -0.000242  -0.014945
    20  H   -0.038397   0.534491  -0.036227  -0.017295  -0.000707   0.024388
    21  N   -0.074305  -0.036227   8.146470  -0.100046  -0.068690   0.455100
    22  C    0.028162  -0.017295  -0.100046  16.480038   0.430325  -4.178313
    23  H   -0.000242  -0.000707  -0.068690   0.430325   0.463443  -0.126618
    24  C   -0.014945   0.024388   0.455100  -4.178313  -0.126618  10.781292
[...]
 0.00008651,0.00009563,0.00016863,0.00016002,-0.00005534,-0.00009577,-0
 .00004713,-0.00001706,0.00001139,0.00000705,-0.00000342,0.00001775,0.0
 0000798,0.00000211,0.00001312,0.00000586,0.00000449,-0.00435344,0.0001
 0221,0.00301619,0.00176634,0.00058613,-0.00126785,0.00049633,0.0305747
 8,-0.01823610,-0.08634804,-0.03419238,0.02739484,0.00100849,-0.0006256
 4,0.00156826,-0.00011858,0.00004192,0.00031377,0.00025738,-0.00004447,
 -0.00051380,0.00017998,0.00036249,-0.00127039,-0.01457531,-0.02557273,
 0.02105787,0.00086680,-0.00022371,0.00043187,0.00113748,0.00069247,0.0
 0064239,-0.00531676,-0.00218955,-0.00158549,0.56937615,0.00001599,0.00
 004999,-0.00002836,-0.00004100,-0.00001782,0.00000752,-0.00000214,0.00
 001127,-0.00000452,0.00001880,0.00000175,-0.00000166,0.00002102,-0.000
 01343,0.00001027,-0.00002121,-0.00000568,-0.00000162,-0.00003835,0.000
 03721,-0.00005449,0.00000701,-0.00001930,0.00000702,-0.00000526,-0.000
 00115,0.00000121,0.00000486,-0.00000323,0.00000361,0.00000632,-0.00000
 040,0.00000260,0.00000154,0.00000636,0.00000004,-0.00003229,0.00001899
 ,0.00002818,0.00004870,-0.00005198,0.00000049,-0.00004932,-0.00006448,
 0.00010061,0.00000624,-0.00000814,-0.00000855,0.00004054,-0.00003824,-
 0.00000832,-0.00025036,0.00006097,0.00018152,-0.00001583,0.00012150,0.
 00004503,0.00005109,-0.00007580,-0.00005070,0.00006837,-0.00147268,0.0
 0078590,0.00024919,0.00005294,-0.00028717,-0.00001242,-0.00003033,0.00
 002141,0.00019831,0.00017089,0.00001170,-0.00008676,-0.00008168,-0.000
 05077,-0.00012660,-0.00012844,0.00005955,0.00005265,0.00004417,0.00000
 939,-0.00000567,-0.00000926,0.00000443,-0.00000812,-0.00000121,-0.0000
 0526,-0.00000608,-0.00000591,-0.00000365,0.00370881,-0.00068742,-0.002
 51260,-0.00109991,0.00002672,0.00117473,0.00414234,-0.04118753,0.02357
 696,-0.02531024,-0.11404686,0.04183695,0.00187409,0.01113675,-0.004370
 70,0.00010765,-0.00006615,0.00003031,0.00010529,-0.00074571,-0.0040496
 5,0.00016608,-0.00006587,-0.00064468,-0.01261234,-0.01083882,0.0090031
 1,0.00109175,-0.00016201,0.00023859,0.00080290,0.00008290,0.00072328,-
 0.00121012,0.00004761,-0.00072359,-0.02467876,0.52784649,-0.00001437,0
 .00001474,-0.00000830,-0.00001135,0.00000468,-0.00000044,0.00000167,-0
 .00000263,0.00000353,-0.00000206,-0.00000378,0.00000017,-0.00000033,0.
 00000355,-0.00000258,0.00000750,0.00000060,-0.00000098,0.00003084,0.00
 000492,-0.00005727,-0.00001654,-0.00001481,0.00000600,-0.00000111,-0.0
 0000053,0.00000059,0.00000055,-0.00000083,0.00000075,0.00000052,0.0000
 0061,0.00000006,-0.00000194,0.00000092,0.00000224,-0.00000449,0.000027
 86,0.00001775,0.00001923,-0.00001436,-0.00001611,-0.00001611,-0.000024
 90,0.00004108,0.00000291,-0.00000664,-0.00000299,0.00001577,-0.0000154
 2,-0.00000745,-0.00013931,0.00003111,0.00017253,0.00001339,0.00007204,
 0.00013267,0.00003314,-0.00010910,-0.00007476,0.00014615,-0.00063011,0
 .00021582,0.00009908,0.00003356,-0.00011229,-0.00000304,-0.00001518,0.
 00000964,0.00005746,0.00005162,0.00004294,-0.00000850,-0.00003195,-0.0
 0005653,-0.00003259,-0.00003122,-0.00000219,-0.00000214,0.00001545,0.0
 0000412,-0.00000039,-0.00000484,0.00000103,0.00000103,0.00000269,-0.00
 000206,0.00000076,-0.00000313,-0.00000033,0.00086697,0.00010866,-0.001
 01732,-0.00024041,-0.00007005,0.00082206,-0.00174583,0.00338821,0.0009
 0153,0.02177358,0.04837751,-0.12636941,0.01176120,0.02084693,-0.031507
 99,-0.00022925,0.00102983,0.00087404,-0.00015997,-0.00242118,-0.004931
 76,0.00039360,0.00088836,0.00145013,0.00119040,-0.00408509,0.00581678,
 0.00017308,0.00017892,-0.00002659,-0.00106640,-0.00087741,0.00037245,-
 0.00267652,-0.00139594,-0.00012279,0.02276529,0.05201744,0.53030622,0.
 00001030,-0.00003845,0.00002263,0.00002460,0.00002409,-0.00001495,0.00
 000331,-0.00000796,0.00000652,-0.00001253,-0.00000124,-0.00000162,-0.0
 0001272,0.00000845,-0.00000760,0.00001275,0.00000442,0.00000062,0.0000
 2557,-0.00000343,0.00002106,-0.00003916,0.00000852,-0.00001374,0.00000
 180,0.00000157,-0.00000079,-0.00000340,0.00000310,-0.00000155,-0.00000
 421,0.00000112,-0.00000049,0.00000117,-0.00000199,0.00000178,0.0000311
 1,-0.00001683,-0.00000029,-0.00000912,0.00004468,-0.00002297,-0.000006
 01,-0.00001608,0.00001001,0.00000402,0.00000058,0.00000333,0.00000145,
 0.00000144,-0.00000390,-0.00002439,-0.00011380,0.00002478,0.00007666,-
 0.00005893,0.00001776,-0.00000825,0.00001141,-0.00000882,-0.00007975,-
 0.00005873,0.00007937,0.00004465,-0.00007726,0.00000261,0.00000392,0.0
 0001120,-0.00000483,-0.00002586,-0.00005357,0.00003259,0.00001132,0.00
 002778,-0.00001346,0.00003795,0.00004983,-0.00003126,-0.00002166,-0.00
 002134,0.00000059,0.00000135,0.00000317,-0.00000345,0.00000205,-0.0000
 0044,0.00000222,0.00000206,0.00000223,0.00000270,0.00075028,-0.0008796
 9,0.00044231,0.00011395,0.00019402,-0.00035572,0.00073997,-0.00168095,
 0.00105707,0.00420580,-0.00719074,-0.00035568,-0.00009505,0.00012287,-
 0.00005945,0.00039723,-0.00022819,0.00002990,0.00007833,-0.00017730,-0
 .00020408,0.00001541,0.00015459,0.00002891,-0.00011798,-0.00015696,-0.
 00007360,-0.00010919,-0.00062997,0.00033008,-0.00000914,-0.00007546,-0
 .00005179,0.00022810,0.00007937,-0.00006780,-0.15120345,0.12959954,-0.
 00142690,0.16262205,0.00003447,0.00003375,-0.00000958,-0.00003067,-0.0
 0001190,0.00000165,-0.00000225,0.00000819,-0.00000795,0.00001463,0.000
 00511,0.00000018,0.00001955,-0.00001338,0.00001165,-0.00002428,-0.0000
 0315,-0.00000097,-0.00005263,-0.00001089,-0.00002875,0.00001746,-0.000
 00781,0.00000673,-0.00000361,0.00000049,-0.00000060,0.00000433,-0.0000
 0310,0.00000190,0.00000487,-0.00000113,0.00000029,0.00000256,0.0000032
 6,-0.00000235,-0.00000867,-0.00000933,0.00000002,0.00003378,-0.0000242
 5,0.00001447,-0.00003144,-0.00002493,0.00004625,0.00000722,-0.00000379
 ,-0.00000845,0.00002275,-0.00002003,-0.00000305,-0.00014114,-0.0000298
 7,0.00012299,-0.00006531,0.00000667,-0.00000609,0.00002853,0.00001898,
 -0.00002528,0.00020705,-0.00077206,0.00031137,0.00010225,0.00011165,-0
 .00017561,-0.00001427,-0.00002569,0.00001691,0.00013896,0.00014252,-0.
 00000943,-0.00007030,-0.00007092,-0.00002434,-0.00010634,-0.00011741,0
 .00005528,0.00005966,0.00004557,0.00000645,-0.00000534,-0.00000679,0.0
 0000533,-0.00000814,-0.00000089,-0.00000327,-0.00000635,-0.00000546,-0
 .00000489,0.00128242,0.00179032,-0.00165890,-0.00082875,-0.00040011,0.
 00075727,-0.00042066,-0.00605382,0.00457972,0.01460328,-0.01459974,-0.
 00345530,0.00045331,0.00025292,-0.00104071,-0.00027180,0.00063982,0.00
 029674,-0.00033636,0.00014353,-0.00005306,-0.00012011,0.00005155,0.000
 00701,0.00090076,0.00038287,-0.00059308,-0.00095130,0.00022379,0.00016
 101,-0.00001105,-0.00005285,0.00010149,-0.00020411,0.00037095,0.000069
 15,0.12675640,-0.20508789,0.00361391,-0.14130511,0.22287976,-0.0000139
 1,-0.00000242,-0.00000358,0.00000555,-0.00000815,0.00000615,-0.0000008
 8,0.00000080,-0.00000042,0.00000010,-0.00000086,-0.00000025,-0.0000030
 6,0.00000073,-0.00000120,0.00000317,-0.00000084,-0.00000058,0.00000018
 ,0.00000080,0.00002172,0.00001676,0.00000357,0.00000380,0.00000084,-0.
 00000098,0.00000083,-0.00000040,0.00000022,0.00000014,-0.00000054,0.00
 000030,0.00000041,-0.00000167,-0.00000059,0.00000047,-0.00000642,0.000
 00439,-0.00000873,-0.00001793,-0.00000511,0.00001019,0.00002199,0.0000
 2683,-0.00003933,-0.00000597,0.00000281,0.00000247,-0.00001531,0.00001
 244,0.00000568,0.00010874,0.00005322,-0.00011108,-0.00002219,-0.000017
 12,-0.00006957,-0.00001868,0.00003517,0.00003814,-0.00008655,0.0005164
 9,-0.00026206,-0.00011557,-0.00002600,0.00008133,0.00000373,0.00001179
 ,-0.00000565,-0.00006030,-0.00004316,-0.00001736,0.00002702,0.00001808
 ,0.00002552,0.00003107,0.00002818,-0.00000827,-0.00001196,-0.00000956,
 -0.00000237,0.00000171,0.00000235,-0.00000086,0.00000237,0.00000095,0.
 00000127,0.00000220,0.00000128,0.00000069,-0.00088915,-0.00004572,0.00
 132928,0.00027819,-0.00003330,-0.00039008,0.00029917,0.00550076,-0.002
 92540,-0.01421898,0.01332889,0.00028758,-0.00042761,-0.00022049,0.0004
 4345,0.00033025,0.00022058,-0.00084185,0.00013401,-0.00016479,0.000224
 86,-0.00001632,0.00008692,-0.00009250,-0.00054183,-0.00049161,0.000355
 62,0.00022807,0.00000755,0.00024857,0.00012572,-0.00011956,0.00004100,
 -0.00011035,-0.00016752,-0.00015363,0.00039879,0.00144182,-0.04735769,
 -0.00007948,-0.00390305,0.04820979,0.00002578,0.00000272,0.00000767,-0
 .00000389,0.00000771,-0.00000757,-0.00000047,-0.00000051,-0.00000128,0
 .00000264,0.00000409,0.00000097,0.00000698,-0.00000414,0.00000422,-0.0
 0001019,-0.00000012,0.00000053,-0.00002694,-0.00001760,0.00000455,-0.0
 0000557,-0.00000332,-0.00000207,-0.00000097,0.00000144,-0.00000170,0.0
 0000058,-0.00000033,-0.00000040,0.00000150,-0.00000099,-0.00000047,0.0
 0000377,0.00000104,-0.00000268,0.00000336,-0.00001539,-0.00000410,0.00
 002309,0.00001900,-0.00000401,-0.00001364,-0.00000047,0.00001037,0.000
 00437,0.00000289,0.00000047,0.00000443,-0.00000333,-0.00000198,-0.0000
 4956,-0.00007440,0.00003546,0.00001564,-0.00001479,-0.00000353,0.00000
 464,0.00001841,-0.00001005,0.00012163,-0.00015275,-0.00000074,0.000019
 93,0.00000716,-0.00004328,-0.00000520,0.00000218,0.00000452,-0.0000573
 8,0.00001477,-0.00007928,0.00006303,-0.00002509,0.00004853,0.00000534,
 -0.00001951,0.00003564,-0.00001068,0.00001555,-0.00000437,0.00000106,-
 0.00000165,0.00000313,0.00000440,0.00000176,-0.00000215,0.00000098,-0.
 00000077,-0.00000271,0.00002338,0.00009541,0.00013030,0.00030448,0.000
 05466,-0.00007029,0.00143888,0.00085369,-0.00004861,-0.01159189,-0.001
 95131,-0.00358657,0.00024506,0.00040874,-0.00102501,-0.00007796,-0.000
 12015,0.00005799,0.00037957,0.00005237,0.00009452,0.00052911,0.0001294
 6,0.00078350,0.00034933,-0.00192933,0.00278820,0.00049056,0.00011234,-
 0.00006336,0.00011579,0.00012073,-0.00011546,-0.00065598,-0.00035171,-
 0.00043549,-0.26489448,-0.07843556,-0.05783779,-0.01705250,-0.00688383
 ,-0.00469051,0.28812896,0.00002188,-0.00004638,0.00003360,0.00002964,0
 .00003452,-0.00002728,0.00000331,-0.00001086,0.00000783,-0.00001580,-0
 .00000017,-0.00000124,-0.00001370,0.00000991,-0.00000704,0.00001273,0.
 00000605,-0.00000010,0.00002367,-0.00001040,0.00003621,-0.00004878,0.0
 0000763,-0.00001522,0.00000214,0.00000306,-0.00000256,-0.00000393,0.00
 000318,-0.00000246,-0.00000458,0.00000083,-0.00000142,0.00000233,-0.00
 000257,0.00000113,0.00004638,-0.00002860,-0.00000571,0.,0.00006532,-0.
 00002839,-0.00000583,0.00000180,-0.00000001,0.00000532,0.00000496,0.00
 000539,-0.00000287,0.00000729,-0.00000400,-0.00002643,-0.00022257,0.00
 000994,0.00011025,-0.00011038,-0.00000778,-0.00001046,0.00004281,-0.00
 000959,0.00004058,0.00009450,-0.00009812,0.00001626,-0.00006672,0.0000
 4142,0.00000041,0.00001456,-0.00000750,-0.00012435,-0.00006253,-0.0000
 4497,0.00008807,0.00001659,0.00004226,0.00006753,0.00005376,-0.0000094
 8,-0.00004033,-0.00001353,-0.00000520,0.00000396,0.00000271,-0.0000009
 8,0.00000811,0.00000304,0.00000079,0.00000436,0.00000194,0.00000096,-0
 .00033708,-0.00044305,0.00059650,0.00052748,0.00018250,-0.00043059,-0.
 00002767,0.00214003,-0.00058795,-0.02155120,-0.00898102,-0.00610479,0.
 00044170,0.00032256,-0.00145384,0.00016691,0.00003954,0.00005162,0.000
 23381,-0.00014196,-0.00010877,0.00029758,0.00046692,0.00040434,-0.0002
 7163,-0.00309825,0.00373679,-0.00016579,0.00030822,0.00000306,0.000322
 23,0.00019560,0.00012336,-0.00152937,-0.00013972,-0.00021048,-0.076552
 24,-0.07391140,-0.02089570,0.02318776,0.00979686,0.00658262,0.08702607
 ,0.07816907,0.00002666,-0.00001139,0.00001598,0.00000478,0.00001540,-0
 .00001079,0.00000074,-0.00000116,-0.00000080,-0.00000194,0.00000209,-0
 .00000216,0.00000077,-0.00000108,-0.00000025,-0.00000694,-0.00000248,-
 0.00000207,-0.00000865,-0.00000416,0.00000970,-0.00001638,0.00000844,-
 0.00001561,0.00000011,0.00000257,-0.00000072,-0.00000089,0.00000136,-0
 .00000030,-0.00000064,0.00000006,0.00000054,0.00000317,0.00000142,0.00
 000140,0.00001669,-0.00002044,0.00002874,0.00000679,0.00001402,-0.0000
 2627,-0.00001093,-0.00000352,0.00000975,0.00000468,0.00000082,-0.00000
 034,0.00000372,0.00000016,-0.00000180,-0.00005883,-0.00010175,0.000031
 13,0.00001731,0.00000308,0.00007659,-0.00000284,0.00000086,-0.00000925
 ,0.00008286,-0.00006574,0.00000776,0.00002801,0.00000817,-0.00000013,-
 0.00000022,0.00000225,-0.00000219,0.00000149,0.00000214,-0.00000610,0.
 00000006,-0.00000253,0.00000264,-0.00000052,-0.00000239,0.00000215,0.0
 0000331,0.00000092,0.00000139,-0.00000053,0.00000085,0.00000013,-0.000
 00051,-0.00000114,0.00000052,-0.00000061,0.00000034,-0.00000068,0.0000
 7290,0.00016387,-0.00022885,-0.00008642,-0.00004187,-0.00001087,0.0002
 5247,-0.00184741,0.00059357,0.02111937,0.00696122,0.00477568,0.0008521
 0,0.00007209,0.00147348,0.00007047,-0.00005681,-0.00010642,-0.00023275
 ,-0.00003125,0.00018826,-0.00011648,0.00021102,-0.00053045,0.00072218,
 0.00280884,-0.00279459,-0.00012836,-0.00007810,-0.00016977,0.00009085,
 0.00034096,0.00019286,0.00108292,0.00069493,0.00068156,-0.06061182,-0.
 02173513,-0.06399213,0.00046099,0.00014251,-0.00106723,0.06377686,0.02
 092687,0.06699750,-0.00000308,0.00002420,-0.00001221,-0.00001462,-0.00
 002299,0.00001492,-0.00000264,0.00000702,-0.00000420,0.00001093,0.0000
 0065,0.00000012,0.00000830,-0.00000641,0.00000774,-0.00000869,-0.00000
 271,-0.00000150,-0.00003045,-0.00000951,-0.00001132,0.00003281,-0.0000
 0147,0.00001332,-0.00000145,-0.00000212,0.00000075,0.00000261,-0.00000
 208,0.00000106,0.00000272,-0.00000070,0.00000022,-0.00000078,0.0000005
 0,-0.00000274,-0.00001967,0.00000176,-0.00002800,-0.00000342,-0.000023
 57,0.00003676,0.00000383,-0.00000157,-0.00000223,-0.00000218,-0.000001
 24,-0.00000352,0.00000158,-0.00000403,0.00000261,0.00004299,0.00009628
 ,-0.00002932,-0.00006788,-0.00001939,-0.00009758,0.00000962,0.00004254
 ,0.00002021,-0.00002126,-0.00004561,0.00005911,-0.00000789,0.00004413,
 -0.00002037,-0.00000504,-0.00001120,0.00000685,0.00006569,0.00004035,0
 .00002454,-0.00005117,-0.00001379,-0.00002399,-0.00003885,-0.00003280,
 0.00000534,0.00002412,0.00001038,0.00000325,-0.00000226,-0.00000125,0.
 00000077,-0.00000389,-0.00000022,0.00000059,-0.00000168,-0.00000209,-0
 .00000083,0.00003286,0.00008904,-0.00016164,-0.00015442,-0.00011167,0.
 00007182,-0.00008913,0.00038101,-0.00081224,-0.00185404,0.00538098,0.0
 0930795,-0.00054416,-0.00163970,0.00107544,0.00008449,-0.00027059,-0.0
 0026505,0.00062492,0.00018142,0.00066227,0.00028666,0.00006278,0.00034
 317,0.00037051,0.00086681,0.00060049,-0.00010322,0.00001618,0.00014236
 ,-0.00010316,-0.00057187,-0.00000366,0.00007293,-0.00001117,-0.0002503
 4,-0.04792188,0.00165927,0.00628318,-0.00061282,0.00720956,0.01933596,
 0.00213903,-0.01195844,-0.02741601,0.04785311,-0.00002110,-0.00001380,
 0.00000782,0.00001524,0.00000707,-0.00000232,0.00000169,-0.00000614,0.
 00000445,-0.00000880,-0.00000200,0.00000165,-0.00001096,0.00000834,-0.
 00000631,0.00001479,0.00000318,0.00000172,0.00003547,0.00000256,-0.000
 00113,-0.00001553,0.00000134,-0.00000082,0.00000177,-0.00000061,0.0000
 0005,-0.00000203,0.00000112,-0.00000130,-0.00000239,0.00000036,-0.0000
 0103,-0.00000153,-0.00000281,-0.00000009,0.00000604,0.00000276,-0.0000
 1437,-0.00001347,0.00001597,-0.00000212,0.00000942,0.00000083,-0.00001
 283,-0.00000098,0.00000018,0.00000277,-0.00000662,0.00000615,-0.000000
 70,0.00005394,-0.00000681,-0.00000414,0.00003666,0.00000094,-0.0000050
 6,0.00000642,-0.00001407,-0.00000346,-0.00006482,0.00018952,-0.0000615
 8,-0.00002067,-0.00004623,0.00005295,0.00000279,0.00001073,-0.00000951
 ,-0.00002321,-0.00005438,0.00005528,0.00000079,0.00003764,-0.00002515,
 0.00003864,0.00005297,-0.00004150,-0.00002126,-0.00002200,-0.00000175,
 0.00000144,0.00000303,-0.00000340,0.00000198,-0.00000030,0.00000266,0.
 00000191,0.00000222,0.00000285,-0.00026556,-0.00042341,0.00049605,0.00
 022160,0.00009674,-0.00024738,-0.00070394,0.00210008,-0.00054986,-0.00
 047491,0.00799157,0.02169558,-0.00107050,-0.00298836,0.00233128,-0.000
 29062,0.00013302,0.00007493,-0.00007118,0.00062154,0.00125266,0.000106
 24,-0.00013595,0.00003266,0.00090045,0.00099880,0.00031567,-0.00007093
 ,-0.00002015,-0.00014845,-0.00021722,-0.00007527,-0.00010581,0.0002522
 8,0.00003049,-0.00002957,0.00270783,-0.09088766,-0.10005931,-0.0007473
 4,-0.00955137,-0.02262872,0.00105486,-0.00470566,-0.00837891,-0.001346
 69,0.09663783,0.00000460,0.00001279,-0.00001345,-0.00001004,-0.0000204
 2,0.00001123,-0.00000230,0.00000758,-0.00000176,0.00000987,0.00000223,
 0.00000160,0.00000839,-0.00000656,0.00000789,-0.00000969,0.00000073,0.
 00000206,-0.00004223,-0.00000251,0.00001212,0.00003148,0.00000131,0.00
 001841,-0.00000094,-0.00000280,-0.00000096,0.00000213,-0.00000201,-0.0
 0000014,0.00000205,-0.00000109,-0.00000056,0.00000002,-0.00000032,-0.0
 0000383,-0.00001412,-0.00000291,-0.00002726,-0.00000615,-0.00001332,0.
 00003548,0.00000615,0.00000467,-0.00000890,-0.00000566,0.00000522,0.00
 000089,-0.00000088,-0.00000334,0.00000383,0.00002718,0.00007036,-0.000
 09918,-0.00008614,0.00000180,-0.00010433,-0.00000975,0.00005855,0.0000
 4814,-0.00011841,0.00004174,0.00006252,-0.00003090,0.00000516,-0.00003
 210,0.00000161,-0.00001180,0.00001298,-0.00000761,0.00001359,-0.000109
 71,0.00002198,-0.00001471,0.00007731,-0.00002464,-0.00003186,0.0000612
 5,0.00001176,0.00000548,-0.00000423,0.00000006,-0.00000409,0.00000231,
 -0.00000194,-0.00000129,-0.00000614,-0.00000314,0.00000198,-0.00000023
 ,0.00035489,0.00040378,-0.00031232,-0.00041564,-0.00004731,0.00055931,
 0.00020742,-0.00106420,0.00207808,0.00070578,-0.01058203,-0.02192533,0
 .00175512,0.00489252,-0.00204365,-0.00000640,-0.00006896,0.00037785,0.
 00004970,-0.00077774,-0.00135478,-0.00002633,0.00000848,0.00035540,-0.
 00124080,-0.00110964,0.00069655,0.00000404,0.00011068,-0.00000527,0.00
 057784,0.00049680,0.00077507,-0.00019720,0.00023923,0.00030152,0.00686
 849,-0.09678227,-0.26552415,0.00022639,0.00068445,0.00202075,0.0002580
 5,-0.00253352,-0.00611156,-0.00887406,0.10601557,0.29016726\\0.0000002
 0,0.00000151,0.00000097,0.00000026,0.00000068,-0.00000046,0.00000039,0
 .00000012,-0.00000123,0.00000032,0.00000042,-0.00000051,0.00000022,0.0
 0000131,0.00000090,0.00000017,0.00000178,0.00000177,0.00000044,0.00000
 130,0.00000053,0.00000062,0.00000041,-0.00000082,0.00000045,-0.0000005
 8,-0.00000236,0.00000034,0.,-0.00000111,0.00000014,0.00000146,0.000001
 47,0.00000007,0.00000239,0.00000294,0.00000014,0.00000236,0.00000269,0
 .00000028,0.00000182,0.00000151,0.00000016,0.00000003,-0.00000201,0.00
 000108,0.00000069,-0.00000289,0.00000040,-0.00000103,-0.00000282,0.000
 00043,0.00000148,0.00000048,0.00000010,0.00000151,0.00000173,0.0000009
 3,0.00000235,0.,0.00000012,0.00000013,-0.00000024,0.00000041,-0.000000
 92,-0.00000159,-0.00000034,-0.00000192,-0.00000138,0.00000053,-0.00000
 078,-0.00000305,0.00000095,0.00000020,-0.00000329,0.00000041,-0.000002
 05,-0.00000397,0.00000066,-0.00000220,-0.00000532,0.00000043,-0.000003
 30,-0.00000596,0.00000059,-0.00000220,-0.00000503,0.00000116,-0.000001
 31,-0.00000606,-0.00000070,-0.00000048,0.00000054,-0.00000039,-0.00000
 178,-0.00000058,-0.00000028,0.00000024,0.00000156,-0.00000069,-0.00000
 021,0.00000224,-0.00000143,-0.00000181,0.00000275,-0.00000176,-0.00000
 192,0.00000359,-0.00000154,-0.00000248,0.00000216,-0.00000162,-0.00000
 175,0.00000370,-0.00000033,-0.00000018,0.00000108,-0.00000061,-0.00000
 035,0.00000176,0.00000018,0.00000092,0.00000065,-0.00000052,-0.0000010
 7,0.00000014,-0.00000057,0.00000117,0.00000357,-0.00000083,0.00000084,
 0.00000427,-0.00000088,0.00000106,0.00000447,-0.00000010,0.00000214,0.
 00000319\\\@


 KEEP CLOSE TO NATURES HEART, YOURSELF;
 AND BREAK CLEAR AWAY, ONCE IN A WHILE, AND
 CLIMB A MOUNTAIN OR SPEND A WEEK IN THE
 WOODS.  WASH YOUR SPIRIT CLEAN...
                                         -- JOHN MUIR
 Job cpu time:       1 days  8 hours 12 minutes 22.5 seconds.
 File lengths (MBytes):  RWF=   3145 Int=      0 D2E=      0 Chk=     35 Scr=      1
 Normal termination of Gaussian 09 at Thu Feb 15 10:30:40 2024.
