module: Command not found.
module: Command not found.
 Entering Gaussian System, Link 0=g09
 Initial command:
 /opt/gaussian/g09/l1.exe "/tmp/G09-compound5.com.o10565209.tmp/Gau-1847419.inp" -scrdir="/tmp/G09-compound5.com.o10565209.tmp/"
 Entering Link 1 = /opt/gaussian/g09/l1.exe PID=   1847420.
  
 Copyright (c) 1988,1990,1992,1993,1995,1998,2003,2009,2013,
            Gaussian, Inc.  All Rights Reserved.
  
 This is part of the Gaussian(R) 09 program.  It is based on
 the Gaussian(R) 03 system (copyright 2003, Gaussian, Inc.),
 the Gaussian(R) 98 system (copyright 1998, Gaussian, Inc.),
 the Gaussian(R) 94 system (copyright 1995, Gaussian, Inc.),
 the Gaussian 92(TM) system (copyright 1992, Gaussian, Inc.),
 the Gaussian 90(TM) system (copyright 1990, Gaussian, Inc.),
 the Gaussian 88(TM) system (copyright 1988, Gaussian, Inc.),
 the Gaussian 86(TM) system (copyright 1986, Carnegie Mellon
 University), and the Gaussian 82(TM) system (copyright 1983,
 Carnegie Mellon University). Gaussian is a federally registered
 trademark of Gaussian, Inc.
  
 This software contains proprietary and confidential information,
 including trade secrets, belonging to Gaussian, Inc.
  
 This software is provided under written license and may be
 used, copied, transmitted, or stored only in accord with that
 written license.
  
 The following legend is applicable only to US Government
 contracts under FAR:
  
                    RESTRICTED RIGHTS LEGEND
  
 Use, reproduction and disclosure by the US Government is
 subject to restrictions as set forth in subparagraphs (a)
 and (c) of the Commercial Computer Software - Restricted
 Rights clause in FAR 52.227-19.
  
 Gaussian, Inc.
 340 Quinnipiac St., Bldg. 40, Wallingford CT 06492
  
  
 ---------------------------------------------------------------
 Warning -- This program may not be used in any manner that
 competes with the business of Gaussian, Inc. or will provide
 assistance to any competitor of Gaussian, Inc.  The licensee
 of this program is prohibited from giving any competitor of
 Gaussian, Inc. access to this program.  By using this program,
 the user acknowledges that Gaussian, Inc. is engaged in the
 business of creating and licensing software in the field of
 computational chemistry and represents and warrants to the
 licensee that it is not a competitor of Gaussian, Inc. and that
 it will not use this program in any manner prohibited above.
 ---------------------------------------------------------------
  

 Cite this work as:
 Gaussian 09, Revision D.01,
 M. J. Frisch, G. W. Trucks, H. B. Schlegel, G. E. Scuseria, 
 M. A. Robb, J. R. Cheeseman, G. Scalmani, V. Barone, B. Mennucci, 
 G. A. Petersson, H. Nakatsuji, M. Caricato, X. Li, H. P. Hratchian, 
 A. F. Izmaylov, J. Bloino, G. Zheng, J. L. Sonnenberg, M. Hada, 
 M. Ehara, K. Toyota, R. Fukuda, J. Hasegawa, M. Ishida, T. Nakajima, 
 Y. Honda, O. Kitao, H. Nakai, T. Vreven, J. A. Montgomery, Jr., 
 J. E. Peralta, F. Ogliaro, M. Bearpark, J. J. Heyd, E. Brothers, 
 K. N. Kudin, V. N. Staroverov, T. Keith, R. Kobayashi, J. Normand, 
 K. Raghavachari, A. Rendell, J. C. Burant, S. S. Iyengar, J. Tomasi, 
 M. Cossi, N. Rega, J. M. Millam, M. Klene, J. E. Knox, J. B. Cross, 
 V. Bakken, C. Adamo, J. Jaramillo, R. Gomperts, R. E. Stratmann, 
 O. Yazyev, A. J. Austin, R. Cammi, C. Pomelli, J. W. Ochterski, 
 R. L. Martin, K. Morokuma, V. G. Zakrzewski, G. A. Voth, 
 P. Salvador, J. J. Dannenberg, S. Dapprich, A. D. Daniels, 
 O. Farkas, J. B. Foresman, J. V. Ortiz, J. Cioslowski, 
 and D. J. Fox, Gaussian, Inc., Wallingford CT, 2013.
 
 ******************************************
 Gaussian 09:  ES64L-G09RevD.01 24-Apr-2013
                18-Jan-2024 
 ******************************************
 %nprocshared=20
 Will use up to   20 processors via shared memory.
 %mem=4GB
 %chk=compound5.chk
 ----------------------------------------------------------------------
 # opt freq=noraman b3lyp/6-311+g(d,p) pop=(npa,hirshfeld,chelpg,mbs) g
 eom=connectivity
 ----------------------------------------------------------------------
 1/14=-1,18=20,19=15,26=3,38=1,57=2/1,3;
 2/9=110,12=2,17=6,18=5,40=1/2;
 3/5=4,6=6,7=111,11=2,16=1,25=1,30=1,71=1,74=-5/1,2,3;
 4//1;
 5/5=2,38=5/2;
 6/7=2,8=2,9=2,10=2,15=8,20=3,27=100,28=1,40=-1,79=1/1,2,7;
 7//1,2,3,16;
 1/14=-1,18=20,19=15,26=3/3(2);
 2/9=110/2;
 99//99;
 2/9=110/2;
 3/5=4,6=6,7=111,11=2,16=1,25=1,30=1,71=1,74=-5/1,2,3;
 4/5=5,16=3,69=1/1;
 5/5=2,38=5/2;
 7//1,2,3,16;
 1/14=-1,18=20,19=15,26=3/3(-5);
 2/9=110/2;
 6/7=2,8=2,9=2,10=2,15=8,19=2,20=3,27=100,28=1,40=-1,79=1/1,2,7;
 99/9=1/99;
 ---
 tit
 ---
 Symbolic Z-matrix:
 Charge =  0 Multiplicity = 1
 C                     0.34831   6.12868  -0.05141 
 C                     1.09369   7.29366  -0.30536 
 C                     0.58541   8.52954   0.09497 
 C                    -0.66498   8.57914   0.70991 
 C                    -1.37442   7.38858   0.91585 
 H                     1.14514   9.42726  -0.06967 
 H                    -1.07861   9.51732   1.01972 
 H                    -2.33543   7.41884   1.38927 
 N                    -0.861     6.21161   0.52704 
 C                     0.92257   4.74571  -0.42074 
 C                     0.17291   3.57849  -0.19549 
 C                     2.20489   4.65399  -0.97753 
 C                     0.71998   2.32111  -0.50122 
 H                    -0.81414   3.64621   0.21264 
 C                     2.75031   3.39931  -1.27329 
 H                     2.76859   5.54058  -1.17112 
 C                     2.01658   2.23472  -1.02981 
 H                     0.15004   1.43195  -0.32998 
 H                     3.73343   3.3308   -1.68866 
 C                     2.65513   0.87096  -1.34804 
 H                     3.17199   0.50902  -0.48564 
 H                     3.34449   0.98725  -2.15815 
 C                     1.56571  -0.13361  -1.75304 
 C                     0.80857   0.41165  -2.97734 
 H                     0.352     1.34561  -2.72569 
 H                     1.49462   0.55651  -3.78547 
 H                     0.05436  -0.28605  -3.27072 
 C                     0.58379  -0.32913  -0.58489 
 H                     0.12646   0.60608  -0.34279 
 H                    -0.16962  -1.0327   -0.86651 
 H                     1.11526  -0.69711   0.26772 
 C                     2.21763  -1.4855   -2.1085 
 H                     2.74483  -1.86404  -1.25778 
 H                     1.45863  -2.18122  -2.39763 
 H                     2.90388  -1.34838  -2.91958 
 S                     2.67203   7.21682  -1.13133 
 O                     3.56645   6.29253  -0.41852 
 O                     2.47476   6.74304  -2.51137 
 N                     3.37752   8.7756   -1.13907 
 H                     4.25041   8.75358  -1.62934 
 C                     3.6011    9.17967   0.25748 
 C                     2.606     9.87299   0.96021 
 C                     4.92803   9.15726   2.15739 
 C                     3.91497   9.8072    2.87462 
 H                     5.83959   8.886     2.64281 
 N                     4.75394   8.87375   0.86166 
 N                     2.78848   10.17419   2.25174 
 C                     4.08989   10.09716   4.37639 
 H                     4.71227   9.34472   4.81533 
 H                     4.54514   11.05474   4.5039 
 H                     3.13271   10.08932   4.85366 
 O                     1.39579   10.25533   0.30635 
 C                     0.89123   11.45691   0.90077 
 H                     0.70547   11.28732   1.94287 
 H                     1.6095    12.24305   0.79146 
 H                    -0.02107   11.7352   0.41666 
 

 GradGradGradGradGradGradGradGradGradGradGradGradGradGradGradGradGradGrad
 Berny optimization.
 Initialization pass.
                           ----------------------------
                           !    Initial Parameters    !
                           ! (Angstroms and Degrees)  !
 --------------------------                            --------------------------
 ! Name  Definition              Value          Derivative Info.                !
 --------------------------------------------------------------------------------
 ! R1    R(1,2)                  1.4061         estimate D2E/DX2                !
 ! R2    R(1,9)                  1.3431         estimate D2E/DX2                !
 ! R3    R(1,10)                 1.5423         estimate D2E/DX2                !
 ! R4    R(2,3)                  1.395          estimate D2E/DX2                !
 ! R5    R(2,36)                 1.7831         estimate D2E/DX2                !
 ! R6    R(3,4)                  1.3943         estimate D2E/DX2                !
 ! R7    R(3,6)                  1.0707         estimate D2E/DX2                !
 ! R8    R(4,5)                  1.4011         estimate D2E/DX2                !
 ! R9    R(4,7)                  1.0711         estimate D2E/DX2                !
 ! R10   R(5,8)                  1.0717         estimate D2E/DX2                !
 ! R11   R(5,9)                  1.3417         estimate D2E/DX2                !
 ! R12   R(10,11)                1.4054         estimate D2E/DX2                !
 ! R13   R(10,12)                1.401          estimate D2E/DX2                !
 ! R14   R(11,13)                1.4049         estimate D2E/DX2                !
 ! R15   R(11,14)                1.0702         estimate D2E/DX2                !
 ! R16   R(12,15)                1.3997         estimate D2E/DX2                !
 ! R17   R(12,16)                1.0683         estimate D2E/DX2                !
 ! R18   R(13,17)                1.4029         estimate D2E/DX2                !
 ! R19   R(13,18)                1.0699         estimate D2E/DX2                !
 ! R20   R(15,17)                1.3978         estimate D2E/DX2                !
 ! R21   R(15,19)                1.0695         estimate D2E/DX2                !
 ! R22   R(17,20)                1.5391         estimate D2E/DX2                !
 ! R23   R(20,21)                1.0686         estimate D2E/DX2                !
 ! R24   R(20,22)                1.0701         estimate D2E/DX2                !
 ! R25   R(20,23)                1.5362         estimate D2E/DX2                !
 ! R26   R(23,24)                1.5393         estimate D2E/DX2                !
 ! R27   R(23,28)                1.5385         estimate D2E/DX2                !
 ! R28   R(23,32)                1.5424         estimate D2E/DX2                !
 ! R29   R(24,25)                1.0696         estimate D2E/DX2                !
 ! R30   R(24,26)                1.0699         estimate D2E/DX2                !
 ! R31   R(24,27)                1.0685         estimate D2E/DX2                !
 ! R32   R(28,29)                1.0688         estimate D2E/DX2                !
 ! R33   R(28,30)                1.0686         estimate D2E/DX2                !
 ! R34   R(28,31)                1.07           estimate D2E/DX2                !
 ! R35   R(32,33)                1.07           estimate D2E/DX2                !
 ! R36   R(32,34)                1.0694         estimate D2E/DX2                !
 ! R37   R(32,35)                1.0712         estimate D2E/DX2                !
 ! R38   R(36,37)                1.4705         estimate D2E/DX2                !
 ! R39   R(36,38)                1.4724         estimate D2E/DX2                !
 ! R40   R(36,39)                1.711          estimate D2E/DX2                !
 ! R41   R(39,40)                1.0014         estimate D2E/DX2                !
 ! R42   R(39,41)                1.4709         estimate D2E/DX2                !
 ! R43   R(41,42)                1.4017         estimate D2E/DX2                !
 ! R44   R(41,46)                1.337          estimate D2E/DX2                !
 ! R45   R(42,47)                1.3387         estimate D2E/DX2                !
 ! R46   R(42,52)                1.4277         estimate D2E/DX2                !
 ! R47   R(43,44)                1.4011         estimate D2E/DX2                !
 ! R48   R(43,45)                1.0678         estimate D2E/DX2                !
 ! R49   R(43,46)                1.3378         estimate D2E/DX2                !
 ! R50   R(44,47)                1.3385         estimate D2E/DX2                !
 ! R51   R(44,48)                1.5395         estimate D2E/DX2                !
 ! R52   R(48,49)                1.0706         estimate D2E/DX2                !
 ! R53   R(48,50)                1.0679         estimate D2E/DX2                !
 ! R54   R(48,51)                1.0696         estimate D2E/DX2                !
 ! R55   R(52,53)                1.4324         estimate D2E/DX2                !
 ! R56   R(53,54)                1.072          estimate D2E/DX2                !
 ! R57   R(53,55)                1.0705         estimate D2E/DX2                !
 ! R58   R(53,56)                1.0696         estimate D2E/DX2                !
 ! A1    A(2,1,9)              120.2593         estimate D2E/DX2                !
 ! A2    A(2,1,10)             120.1501         estimate D2E/DX2                !
 ! A3    A(9,1,10)             119.5867         estimate D2E/DX2                !
 ! A4    A(1,2,3)              119.2761         estimate D2E/DX2                !
 ! A5    A(1,2,36)             121.1436         estimate D2E/DX2                !
 ! A6    A(3,2,36)             119.5801         estimate D2E/DX2                !
 ! A7    A(2,3,4)              119.0017         estimate D2E/DX2                !
 ! A8    A(2,3,6)              120.5457         estimate D2E/DX2                !
 ! A9    A(4,3,6)              120.4523         estimate D2E/DX2                !
 ! A10   A(3,4,5)              119.253          estimate D2E/DX2                !
 ! A11   A(3,4,7)              120.3339         estimate D2E/DX2                !
 ! A12   A(5,4,7)              120.413          estimate D2E/DX2                !
 ! A13   A(4,5,8)              119.6678         estimate D2E/DX2                !
 ! A14   A(4,5,9)              120.6016         estimate D2E/DX2                !
 ! A15   A(8,5,9)              119.7306         estimate D2E/DX2                !
 ! A16   A(1,9,5)              121.5693         estimate D2E/DX2                !
 ! A17   A(1,10,11)            120.5126         estimate D2E/DX2                !
 ! A18   A(1,10,12)            119.6478         estimate D2E/DX2                !
 ! A19   A(11,10,12)           119.8384         estimate D2E/DX2                !
 ! A20   A(10,11,13)           120.0483         estimate D2E/DX2                !
 ! A21   A(10,11,14)           120.0341         estimate D2E/DX2                !
 ! A22   A(13,11,14)           119.9172         estimate D2E/DX2                !
 ! A23   A(10,12,15)           119.955          estimate D2E/DX2                !
 ! A24   A(10,12,16)           120.0432         estimate D2E/DX2                !
 ! A25   A(15,12,16)           120.0009         estimate D2E/DX2                !
 ! A26   A(11,13,17)           119.8026         estimate D2E/DX2                !
 ! A27   A(11,13,18)           120.1006         estimate D2E/DX2                !
 ! A28   A(17,13,18)           120.0967         estimate D2E/DX2                !
 ! A29   A(12,15,17)           120.3632         estimate D2E/DX2                !
 ! A30   A(12,15,19)           119.8474         estimate D2E/DX2                !
 ! A31   A(17,15,19)           119.7894         estimate D2E/DX2                !
 ! A32   A(13,17,15)           119.9649         estimate D2E/DX2                !
 ! A33   A(13,17,20)           121.0595         estimate D2E/DX2                !
 ! A34   A(15,17,20)           118.9755         estimate D2E/DX2                !
 ! A35   A(17,20,21)           109.5076         estimate D2E/DX2                !
 ! A36   A(17,20,22)           109.1182         estimate D2E/DX2                !
 ! A37   A(17,20,23)           109.8591         estimate D2E/DX2                !
 ! A38   A(21,20,22)           109.6456         estimate D2E/DX2                !
 ! A39   A(21,20,23)           109.5289         estimate D2E/DX2                !
 ! A40   A(22,20,23)           109.167          estimate D2E/DX2                !
 ! A41   A(20,23,24)           109.0783         estimate D2E/DX2                !
 ! A42   A(20,23,28)           109.6049         estimate D2E/DX2                !
 ! A43   A(20,23,32)           109.5221         estimate D2E/DX2                !
 ! A44   A(24,23,28)           109.572          estimate D2E/DX2                !
 ! A45   A(24,23,32)           109.5769         estimate D2E/DX2                !
 ! A46   A(28,23,32)           109.4728         estimate D2E/DX2                !
 ! A47   A(23,24,25)           109.3981         estimate D2E/DX2                !
 ! A48   A(23,24,26)           109.4703         estimate D2E/DX2                !
 ! A49   A(23,24,27)           109.5283         estimate D2E/DX2                !
 ! A50   A(25,24,26)           109.4623         estimate D2E/DX2                !
 ! A51   A(25,24,27)           109.4786         estimate D2E/DX2                !
 ! A52   A(26,24,27)           109.4895         estimate D2E/DX2                !
 ! A53   A(23,28,29)           109.5045         estimate D2E/DX2                !
 ! A54   A(23,28,30)           109.4845         estimate D2E/DX2                !
 ! A55   A(23,28,31)           109.3736         estimate D2E/DX2                !
 ! A56   A(29,28,30)           109.5182         estimate D2E/DX2                !
 ! A57   A(29,28,31)           109.4487         estimate D2E/DX2                !
 ! A58   A(30,28,31)           109.4978         estimate D2E/DX2                !
 ! A59   A(23,32,33)           109.5782         estimate D2E/DX2                !
 ! A60   A(23,32,34)           109.4221         estimate D2E/DX2                !
 ! A61   A(23,32,35)           109.4546         estimate D2E/DX2                !
 ! A62   A(33,32,34)           109.5412         estimate D2E/DX2                !
 ! A63   A(33,32,35)           109.3669         estimate D2E/DX2                !
 ! A64   A(34,32,35)           109.4642         estimate D2E/DX2                !
 ! A65   A(2,36,37)            109.9344         estimate D2E/DX2                !
 ! A66   A(2,36,38)            109.2355         estimate D2E/DX2                !
 ! A67   A(2,36,39)            109.1367         estimate D2E/DX2                !
 ! A68   A(37,36,38)           109.4859         estimate D2E/DX2                !
 ! A69   A(37,36,39)           108.9066         estimate D2E/DX2                !
 ! A70   A(38,36,39)           110.1301         estimate D2E/DX2                !
 ! A71   A(36,39,40)           109.9737         estimate D2E/DX2                !
 ! A72   A(36,39,41)           107.9772         estimate D2E/DX2                !
 ! A73   A(40,39,41)           109.7787         estimate D2E/DX2                !
 ! A74   A(39,41,42)           120.2628         estimate D2E/DX2                !
 ! A75   A(39,41,46)           119.8173         estimate D2E/DX2                !
 ! A76   A(42,41,46)           119.9174         estimate D2E/DX2                !
 ! A77   A(41,42,47)           119.8814         estimate D2E/DX2                !
 ! A78   A(41,42,52)           120.3073         estimate D2E/DX2                !
 ! A79   A(47,42,52)           119.8109         estimate D2E/DX2                !
 ! A80   A(44,43,45)           120.1577         estimate D2E/DX2                !
 ! A81   A(44,43,46)           120.0022         estimate D2E/DX2                !
 ! A82   A(45,43,46)           119.84           estimate D2E/DX2                !
 ! A83   A(43,44,47)           119.8327         estimate D2E/DX2                !
 ! A84   A(43,44,48)           120.3033         estimate D2E/DX2                !
 ! A85   A(47,44,48)           119.8637         estimate D2E/DX2                !
 ! A86   A(41,46,43)           120.0927         estimate D2E/DX2                !
 ! A87   A(42,47,44)           120.1317         estimate D2E/DX2                !
 ! A88   A(44,48,49)           109.4895         estimate D2E/DX2                !
 ! A89   A(44,48,50)           109.4996         estimate D2E/DX2                !
 ! A90   A(44,48,51)           109.4038         estimate D2E/DX2                !
 ! A91   A(49,48,50)           109.4766         estimate D2E/DX2                !
 ! A92   A(49,48,51)           109.3986         estimate D2E/DX2                !
 ! A93   A(50,48,51)           109.5592         estimate D2E/DX2                !
 ! A94   A(42,52,53)           109.4624         estimate D2E/DX2                !
 ! A95   A(52,53,54)           109.3742         estimate D2E/DX2                !
 ! A96   A(52,53,55)           109.714          estimate D2E/DX2                !
 ! A97   A(52,53,56)           109.3216         estimate D2E/DX2                !
 ! A98   A(54,53,55)           109.373          estimate D2E/DX2                !
 ! A99   A(54,53,56)           109.4708         estimate D2E/DX2                !
 ! A100  A(55,53,56)           109.5735         estimate D2E/DX2                !
 ! D1    D(9,1,2,3)              2.3735         estimate D2E/DX2                !
 ! D2    D(9,1,2,36)          -177.5061         estimate D2E/DX2                !
 ! D3    D(10,1,2,3)          -176.9029         estimate D2E/DX2                !
 ! D4    D(10,1,2,36)            3.2174         estimate D2E/DX2                !
 ! D5    D(2,1,9,5)             -2.1208         estimate D2E/DX2                !
 ! D6    D(10,1,9,5)           177.1597         estimate D2E/DX2                !
 ! D7    D(2,1,10,11)         -178.6917         estimate D2E/DX2                !
 ! D8    D(2,1,10,12)            1.6951         estimate D2E/DX2                !
 ! D9    D(9,1,10,11)            2.027          estimate D2E/DX2                !
 ! D10   D(9,1,10,12)         -177.5863         estimate D2E/DX2                !
 ! D11   D(1,2,3,4)             -1.4663         estimate D2E/DX2                !
 ! D12   D(1,2,3,6)            178.7078         estimate D2E/DX2                !
 ! D13   D(36,2,3,4)           178.4153         estimate D2E/DX2                !
 ! D14   D(36,2,3,6)            -1.4106         estimate D2E/DX2                !
 ! D15   D(1,2,36,37)          -54.9382         estimate D2E/DX2                !
 ! D16   D(1,2,36,38)           65.2183         estimate D2E/DX2                !
 ! D17   D(1,2,36,39)         -174.324          estimate D2E/DX2                !
 ! D18   D(3,2,36,37)          125.1825         estimate D2E/DX2                !
 ! D19   D(3,2,36,38)         -114.661          estimate D2E/DX2                !
 ! D20   D(3,2,36,39)            5.7967         estimate D2E/DX2                !
 ! D21   D(2,3,4,5)              0.3259         estimate D2E/DX2                !
 ! D22   D(2,3,4,7)           -179.5785         estimate D2E/DX2                !
 ! D23   D(6,3,4,5)           -179.8481         estimate D2E/DX2                !
 ! D24   D(6,3,4,7)              0.2476         estimate D2E/DX2                !
 ! D25   D(3,4,5,8)            179.9056         estimate D2E/DX2                !
 ! D26   D(3,4,5,9)             -0.0289         estimate D2E/DX2                !
 ! D27   D(7,4,5,8)             -0.1902         estimate D2E/DX2                !
 ! D28   D(7,4,5,9)            179.8753         estimate D2E/DX2                !
 ! D29   D(4,5,9,1)              0.9427         estimate D2E/DX2                !
 ! D30   D(8,5,9,1)           -178.9917         estimate D2E/DX2                !
 ! D31   D(1,10,11,13)        -178.2371         estimate D2E/DX2                !
 ! D32   D(1,10,11,14)           1.533          estimate D2E/DX2                !
 ! D33   D(12,10,11,13)          1.3754         estimate D2E/DX2                !
 ! D34   D(12,10,11,14)       -178.8545         estimate D2E/DX2                !
 ! D35   D(1,10,12,15)         177.8455         estimate D2E/DX2                !
 ! D36   D(1,10,12,16)          -1.8009         estimate D2E/DX2                !
 ! D37   D(11,10,12,15)         -1.7704         estimate D2E/DX2                !
 ! D38   D(11,10,12,16)        178.5832         estimate D2E/DX2                !
 ! D39   D(10,11,13,17)          0.0906         estimate D2E/DX2                !
 ! D40   D(10,11,13,18)        179.9941         estimate D2E/DX2                !
 ! D41   D(14,11,13,17)       -179.6798         estimate D2E/DX2                !
 ! D42   D(14,11,13,18)          0.2237         estimate D2E/DX2                !
 ! D43   D(10,12,15,17)          0.7011         estimate D2E/DX2                !
 ! D44   D(10,12,15,19)       -179.353          estimate D2E/DX2                !
 ! D45   D(16,12,15,17)       -179.6523         estimate D2E/DX2                !
 ! D46   D(16,12,15,19)          0.2936         estimate D2E/DX2                !
 ! D47   D(11,13,17,15)         -1.1629         estimate D2E/DX2                !
 ! D48   D(11,13,17,20)        178.729          estimate D2E/DX2                !
 ! D49   D(18,13,17,15)        178.9336         estimate D2E/DX2                !
 ! D50   D(18,13,17,20)         -1.1745         estimate D2E/DX2                !
 ! D51   D(12,15,17,13)          0.771          estimate D2E/DX2                !
 ! D52   D(12,15,17,20)       -179.1231         estimate D2E/DX2                !
 ! D53   D(19,15,17,13)       -179.1749         estimate D2E/DX2                !
 ! D54   D(19,15,17,20)          0.931          estimate D2E/DX2                !
 ! D55   D(13,17,20,21)        -89.3987         estimate D2E/DX2                !
 ! D56   D(13,17,20,22)        150.5815         estimate D2E/DX2                !
 ! D57   D(13,17,20,23)         30.934          estimate D2E/DX2                !
 ! D58   D(15,17,20,21)         90.4942         estimate D2E/DX2                !
 ! D59   D(15,17,20,22)        -29.5256         estimate D2E/DX2                !
 ! D60   D(15,17,20,23)       -149.173          estimate D2E/DX2                !
 ! D61   D(17,20,23,24)         58.4932         estimate D2E/DX2                !
 ! D62   D(17,20,23,28)        -61.4711         estimate D2E/DX2                !
 ! D63   D(17,20,23,32)        178.4135         estimate D2E/DX2                !
 ! D64   D(21,20,23,24)        178.813          estimate D2E/DX2                !
 ! D65   D(21,20,23,28)         58.8487         estimate D2E/DX2                !
 ! D66   D(21,20,23,32)        -61.2666         estimate D2E/DX2                !
 ! D67   D(22,20,23,24)        -61.1245         estimate D2E/DX2                !
 ! D68   D(22,20,23,28)        178.9112         estimate D2E/DX2                !
 ! D69   D(22,20,23,32)         58.7959         estimate D2E/DX2                !
 ! D70   D(20,23,24,25)        -60.5071         estimate D2E/DX2                !
 ! D71   D(20,23,24,26)         59.4367         estimate D2E/DX2                !
 ! D72   D(20,23,24,27)        179.4937         estimate D2E/DX2                !
 ! D73   D(28,23,24,25)         59.4776         estimate D2E/DX2                !
 ! D74   D(28,23,24,26)        179.4214         estimate D2E/DX2                !
 ! D75   D(28,23,24,27)        -60.5217         estimate D2E/DX2                !
 ! D76   D(32,23,24,25)        179.6064         estimate D2E/DX2                !
 ! D77   D(32,23,24,26)        -60.4498         estimate D2E/DX2                !
 ! D78   D(32,23,24,27)         59.6072         estimate D2E/DX2                !
 ! D79   D(20,23,28,29)         60.2608         estimate D2E/DX2                !
 ! D80   D(20,23,28,30)       -179.6531         estimate D2E/DX2                !
 ! D81   D(20,23,28,31)        -59.6723         estimate D2E/DX2                !
 ! D82   D(24,23,28,29)        -59.4014         estimate D2E/DX2                !
 ! D83   D(24,23,28,30)         60.6847         estimate D2E/DX2                !
 ! D84   D(24,23,28,31)       -179.3344         estimate D2E/DX2                !
 ! D85   D(32,23,28,29)       -179.5938         estimate D2E/DX2                !
 ! D86   D(32,23,28,30)        -59.5077         estimate D2E/DX2                !
 ! D87   D(32,23,28,31)         60.4731         estimate D2E/DX2                !
 ! D88   D(20,23,32,33)         60.3247         estimate D2E/DX2                !
 ! D89   D(20,23,32,34)       -179.5541         estimate D2E/DX2                !
 ! D90   D(20,23,32,35)        -59.6028         estimate D2E/DX2                !
 ! D91   D(24,23,32,33)        179.9393         estimate D2E/DX2                !
 ! D92   D(24,23,32,34)        -59.9395         estimate D2E/DX2                !
 ! D93   D(24,23,32,35)         60.0118         estimate D2E/DX2                !
 ! D94   D(28,23,32,33)        -59.8713         estimate D2E/DX2                !
 ! D95   D(28,23,32,34)         60.2498         estimate D2E/DX2                !
 ! D96   D(28,23,32,35)       -179.7989         estimate D2E/DX2                !
 ! D97   D(2,36,39,40)        -177.975          estimate D2E/DX2                !
 ! D98   D(2,36,39,41)          62.2591         estimate D2E/DX2                !
 ! D99   D(37,36,39,40)         62.0041         estimate D2E/DX2                !
 ! D100  D(37,36,39,41)        -57.7618         estimate D2E/DX2                !
 ! D101  D(38,36,39,40)        -58.0675         estimate D2E/DX2                !
 ! D102  D(38,36,39,41)       -177.8335         estimate D2E/DX2                !
 ! D103  D(36,39,41,42)        -90.0061         estimate D2E/DX2                !
 ! D104  D(36,39,41,46)         89.4144         estimate D2E/DX2                !
 ! D105  D(40,39,41,42)        150.105          estimate D2E/DX2                !
 ! D106  D(40,39,41,46)        -30.4745         estimate D2E/DX2                !
 ! D107  D(39,41,42,47)        176.4294         estimate D2E/DX2                !
 ! D108  D(39,41,42,52)         -3.3306         estimate D2E/DX2                !
 ! D109  D(46,41,42,47)         -2.9905         estimate D2E/DX2                !
 ! D110  D(46,41,42,52)        177.2495         estimate D2E/DX2                !
 ! D111  D(39,41,46,43)       -175.4355         estimate D2E/DX2                !
 ! D112  D(42,41,46,43)          3.987          estimate D2E/DX2                !
 ! D113  D(41,42,47,44)         -0.4239         estimate D2E/DX2                !
 ! D114  D(52,42,47,44)        179.3373         estimate D2E/DX2                !
 ! D115  D(41,42,52,53)       -149.9958         estimate D2E/DX2                !
 ! D116  D(47,42,52,53)         30.244          estimate D2E/DX2                !
 ! D117  D(45,43,44,47)        178.333          estimate D2E/DX2                !
 ! D118  D(45,43,44,48)         -1.8555         estimate D2E/DX2                !
 ! D119  D(46,43,44,47)         -1.7425         estimate D2E/DX2                !
 ! D120  D(46,43,44,48)        178.069          estimate D2E/DX2                !
 ! D121  D(44,43,46,41)         -1.672          estimate D2E/DX2                !
 ! D122  D(45,43,46,41)        178.2527         estimate D2E/DX2                !
 ! D123  D(43,44,47,42)          2.7351         estimate D2E/DX2                !
 ! D124  D(48,44,47,42)       -177.0772         estimate D2E/DX2                !
 ! D125  D(43,44,48,49)        -30.0063         estimate D2E/DX2                !
 ! D126  D(43,44,48,50)         90.029          estimate D2E/DX2                !
 ! D127  D(43,44,48,51)       -149.8873         estimate D2E/DX2                !
 ! D128  D(47,44,48,49)        149.8052         estimate D2E/DX2                !
 ! D129  D(47,44,48,50)        -90.1596         estimate D2E/DX2                !
 ! D130  D(47,44,48,51)         29.9242         estimate D2E/DX2                !
 ! D131  D(42,52,53,54)        -59.5174         estimate D2E/DX2                !
 ! D132  D(42,52,53,55)         60.4513         estimate D2E/DX2                !
 ! D133  D(42,52,53,56)       -179.3666         estimate D2E/DX2                !
 --------------------------------------------------------------------------------
 Trust Radius=3.00D-01 FncErr=1.00D-07 GrdErr=1.00D-06
 Number of steps in this run=    301 maximum allowed number of steps=    336.
 GradGradGradGradGradGradGradGradGradGradGradGradGradGradGradGradGradGrad

 Stoichiometry    C22H26N4O3S
 Framework group  C1[X(C22H26N4O3S)]
 Deg. of freedom   162
 Full point group                 C1      NOp   1
 Largest Abelian subgroup         C1      NOp   1
 Largest concise Abelian subgroup C1      NOp   1
                         Standard orientation:                         
 ---------------------------------------------------------------------
 Center     Atomic      Atomic             Coordinates (Angstroms)
 Number     Number       Type             X           Y           Z
 ---------------------------------------------------------------------
      1          6           0       -0.098389    1.580034    0.152504
      2          6           0        1.013877    1.012397   -0.493951
      3          6           0        2.241442    1.673302   -0.446026
      4          6           0        2.324948    2.896991    0.217077
      5          6           0        1.178160    3.427125    0.822869
      6          1           0        3.106302    1.249337   -0.913544
      7          1           0        3.255251    3.425992    0.261152
      8          1           0        1.235156    4.366499    1.335626
      9          7           0        0.010357    2.768917    0.767848
     10          6           0       -1.447232    0.832380    0.173256
     11          6           0       -2.570958    1.404910    0.793405
     12          6           0       -1.548739   -0.430716   -0.424287
     13          6           0       -3.785036    0.699431    0.839009
     14          1           0       -2.501821    2.377454    1.234776
     15          6           0       -2.757414   -1.134517   -0.369895
     16          1           0       -0.702801   -0.859175   -0.916302
     17          6           0       -3.871116   -0.578004    0.265615
     18          1           0       -4.641031    1.134464    1.311001
     19          1           0       -2.829991   -2.103036   -0.817618
     20          6           0       -5.178296   -1.388355    0.324427
     21          1           0       -5.192077   -1.979256    1.214665
     22          1           0       -5.233479   -2.027155   -0.532264
     23          6           0       -6.383468   -0.435683    0.321694
     24          6           0       -6.337088    0.430682   -0.949815
     25          1           0       -5.433857    1.003577   -0.956590
     26          1           0       -6.365088   -0.200940   -1.812933
     27          1           0       -7.177529    1.090349   -0.963391
     28          6           0       -6.328698    0.469594    1.564446
     29          1           0       -5.427317    1.043733    1.548275
     30          1           0       -7.170969    1.127260    1.563754
     31          1           0       -6.349408   -0.136272    2.446098
     32          6           0       -7.689262   -1.256368    0.340537
     33          1           0       -7.721033   -1.859406    1.223873
     34          1           0       -8.527112   -0.591831    0.330761
     35          1           0       -7.725456   -1.889161   -0.523082
     36         16           0        0.879763   -0.532525   -1.374017
     37          8           0        0.335225   -1.570042   -0.485501
     38          8           0       -0.015348   -0.356325   -2.529713
     39          7           0        2.434494   -1.014407   -1.901449
     40          1           0        2.369358   -1.864837   -2.426135
     41          6           0        3.272079   -1.226868   -0.711101
     42          6           0        4.021188   -0.169577   -0.176585
     43          6           0        3.996076   -2.607533    1.003681
     44          6           0        4.706516   -1.538970    1.566338
     45          1           0        4.000126   -3.563784    1.478795
     46          7           0        3.309271   -2.430740   -0.130624
     47          7           0        4.724422   -0.352075    0.947796
     48          6           0        5.462795   -1.722654    2.894601
     49          1           0        4.963215   -2.457826    3.491369
     50          1           0        6.461177   -2.044783    2.694759
     51          1           0        5.485488   -0.792488    3.422163
     52          8           0        4.033883    1.103365   -0.822962
     53          6           0        5.289144    1.749269   -0.580438
     54          1           0        5.426584    1.874395    0.475357
     55          1           0        6.084986    1.151044   -0.973690
     56          1           0        5.292036    2.707183   -1.056359
 ---------------------------------------------------------------------
 Rotational constants (GHZ):      0.3245221      0.0739371      0.0692912
 Standard basis: 6-311+G(d,p) (5D, 7F)
 There are   854 symmetry adapted cartesian basis functions of A   symmetry.
 There are   824 symmetry adapted basis functions of A   symmetry.
   824 basis functions,  1302 primitive gaussians,   854 cartesian basis functions
   113 alpha electrons      113 beta electrons
       nuclear repulsion energy      3220.5378730805 Hartrees.
 NAtoms=   56 NActive=   56 NUniq=   56 SFac= 1.00D+00 NAtFMM=   60 NAOKFM=F Big=F
 Integral buffers will be    131072 words long.
 Raffenetti 2 integral format.
 Two-electron integral symmetry is turned on.
 One-electron integrals computed using PRISM.
 NBasis=   824 RedAO= T EigKep=  1.20D-06  NBF=   824
 NBsUse=   818 1.00D-06 EigRej=  5.46D-07 NBFU=   818
 ExpMin= 4.05D-02 ExpMax= 9.34D+04 ExpMxC= 3.17D+03 IAcc=2 IRadAn=         4 AccDes= 0.00D+00
 Harris functional with IExCor=  402 and IRadAn=       4 diagonalized for initial guess.
 HarFok:  IExCor=  402 AccDes= 0.00D+00 IRadAn=         4 IDoV= 1 UseB2=F ITyADJ=14
 ICtDFT=  3500011 ScaDFX=  1.000000  1.000000  1.000000  1.000000
 FoFCou: FMM=F IPFlag=           0 FMFlag=      100000 FMFlg1=           0
         NFxFlg=           0 DoJE=T BraDBF=F KetDBF=T FulRan=T
         wScrn=  0.000000 ICntrl=     500 IOpCl=  0 I1Cent=   200000004 NGrid=           0
         NMat0=    1 NMatS0=      1 NMatT0=    0 NMatD0=    1 NMtDS0=    0 NMtDT0=    0
 Petite list used in FoFCou.
 Requested convergence on RMS density matrix=1.00D-08 within 128 cycles.
 Requested convergence on MAX density matrix=1.00D-06.
 Requested convergence on             energy=1.00D-06.
 No special actions if energy rises.
 EnCoef did     1 forward-backward iterations
 SCF Done:  E(RB3LYP) =  -1696.68967721     A.U. after   18 cycles
            NFock= 18  Conv=0.53D-08     -V/T= 2.0019

 **********************************************************************

            Population analysis using the SCF density.

 **********************************************************************

 Orbital symmetries:
       Occupied  (A) (A) (A) (A) (A) (A) (A) (A) (A) (A) (A) (A)
                 (A) (A) (A) (A) (A) (A) (A) (A) (A) (A) (A) (A)
                 (A) (A) (A) (A) (A) (A) (A) (A) (A) (A) (A) (A)
                 (A) (A) (A) (A) (A) (A) (A) (A) (A) (A) (A) (A)
                 (A) (A) (A) (A) (A) (A) (A) (A) (A) (A) (A) (A)
                 (A) (A) (A) (A) (A) (A) (A) (A) (A) (A) (A) (A)
                 (A) (A) (A) (A) (A) (A) (A) (A) (A) (A) (A) (A)
                 (A) (A) (A) (A) (A) (A) (A) (A) (A) (A) (A) (A)
                 (A) (A) (A) (A) (A) (A) (A) (A) (A) (A) (A) (A)
                 (A) (A) (A) (A) (A)
       Virtual   (A) (A) (A) (A) (A) (A) (A) (A) (A) (A) (A) (A)
                 (A) (A) (A) (A) (A) (A) (A) (A) (A) (A) (A) (A)
                 (A) (A) (A) (A) (A) (A) (A) (A) (A) (A) (A) (A)
                 (A) (A) (A) (A) (A) (A) (A) (A) (A) (A) (A) (A)
                 (A) (A) (A) (A) (A) (A) (A) (A) (A) (A) (A) (A)
                 (A) (A) (A) (A) (A) (A) (A) (A) (A) (A) (A) (A)
                 (A) (A) (A) (A) (A) (A) (A) (A) (A) (A) (A) (A)
                 (A) (A) (A) (A) (A) (A) (A) (A) (A) (A) (A) (A)
                 (A) (A) (A) (A) (A) (A) (A) (A) (A) (A) (A) (A)
                 (A) (A) (A) (A) (A) (A) (A) (A) (A) (A) (A) (A)
                 (A) (A) (A) (A) (A) (A) (A) (A) (A) (A) (A) (A)
                 (A) (A) (A) (A) (A) (A) (A) (A) (A) (A) (A) (A)
                 (A) (A) (A) (A) (A) (A) (A) (A) (A) (A) (A) (A)
                 (A) (A) (A) (A) (A) (A) (A) (A) (A) (A) (A) (A)
                 (A) (A) (A) (A) (A) (A) (A) (A) (A) (A) (A) (A)
                 (A) (A) (A) (A) (A) (A) (A) (A) (A) (A) (A) (A)
                 (A) (A) (A) (A) (A) (A) (A) (A) (A) (A) (A) (A)
                 (A) (A) (A) (A) (A) (A) (A) (A) (A) (A) (A) (A)
                 (A) (A) (A) (A) (A) (A) (A) (A) (A) (A) (A) (A)
                 (A) (A) (A) (A) (A) (A) (A) (A) (A) (A) (A) (A)
                 (A) (A) (A) (A) (A) (A) (A) (A) (A) (A) (A) (A)
                 (A) (A) (A) (A) (A) (A) (A) (A) (A) (A) (A) (A)
                 (A) (A) (A) (A) (A) (A) (A) (A) (A) (A) (A) (A)
                 (A) (A) (A) (A) (A) (A) (A) (A) (A) (A) (A) (A)
                 (A) (A) (A) (A) (A) (A) (A) (A) (A) (A) (A) (A)
                 (A) (A) (A) (A) (A) (A) (A) (A) (A) (A) (A) (A)
                 (A) (A) (A) (A) (A) (A) (A) (A) (A) (A) (A) (A)
                 (A) (A) (A) (A) (A) (A) (A) (A) (A) (A) (A) (A)
                 (A) (A) (A) (A) (A) (A) (A) (A) (A) (A) (A) (A)
                 (A) (A) (A) (A) (A) (A) (A) (A) (A) (A) (A) (A)
                 (A) (A) (A) (A) (A) (A) (A) (A) (A) (A) (A) (A)
                 (A) (A) (A) (A) (A) (A) (A) (A) (A) (A) (A) (A)
                 (A) (A) (A) (A) (A) (A) (A) (A) (A) (A) (A) (A)
                 (A) (A) (A) (A) (A) (A) (A) (A) (A) (A) (A) (A)
                 (A) (A) (A) (A) (A) (A) (A) (A) (A) (A) (A) (A)
                 (A) (A) (A) (A) (A) (A) (A) (A) (A) (A) (A) (A)
                 (A) (A) (A) (A) (A) (A) (A) (A) (A) (A) (A) (A)
                 (A) (A) (A) (A) (A) (A) (A) (A) (A) (A) (A) (A)
                 (A) (A) (A) (A) (A) (A) (A) (A) (A) (A) (A) (A)
                 (A) (A) (A) (A) (A) (A) (A) (A) (A) (A) (A) (A)
                 (A) (A) (A) (A) (A) (A) (A) (A) (A) (A) (A) (A)
                 (A) (A) (A) (A) (A) (A) (A) (A) (A) (A) (A) (A)
                 (A) (A) (A) (A) (A) (A) (A) (A) (A) (A) (A) (A)
                 (A) (A) (A) (A) (A) (A) (A) (A) (A) (A) (A) (A)
                 (A) (A) (A) (A) (A) (A) (A) (A) (A) (A) (A) (A)
                 (A) (A) (A) (A) (A) (A) (A) (A) (A) (A) (A) (A)
                 (A) (A) (A) (A) (A) (A) (A) (A) (A) (A) (A) (A)
                 (A) (A) (A) (A) (A) (A) (A) (A) (A) (A) (A) (A)
                 (A) (A) (A) (A) (A) (A) (A) (A) (A) (A) (A) (A)
                 (A) (A) (A) (A) (A) (A) (A) (A) (A) (A) (A) (A)
                 (A) (A) (A) (A) (A) (A) (A) (A) (A) (A) (A) (A)
                 (A) (A) (A) (A) (A) (A) (A) (A) (A) (A) (A) (A)
                 (A) (A) (A) (A) (A) (A) (A) (A) (A) (A) (A) (A)
                 (A) (A) (A) (A) (A) (A) (A) (A) (A) (A) (A) (A)
                 (A) (A) (A) (A) (A) (A) (A) (A) (A) (A) (A) (A)
                 (A) (A) (A) (A) (A) (A) (A) (A) (A) (A) (A) (A)
                 (A) (A) (A) (A) (A) (A) (A) (A) (A) (A) (A) (A)
                 (A) (A) (A) (A) (A) (A) (A) (A) (A) (A) (A) (A)
                 (A) (A) (A) (A) (A) (A) (A) (A) (A)
 The electronic state is 1-A.
 Alpha  occ. eigenvalues --  -89.07791 -19.22819 -19.11529 -19.11185 -14.38610
 Alpha  occ. eigenvalues --  -14.37729 -14.37356 -14.30954 -10.32942 -10.30390
 Alpha  occ. eigenvalues --  -10.27333 -10.25988 -10.25548 -10.23085 -10.21559
 Alpha  occ. eigenvalues --  -10.20995 -10.20264 -10.18015 -10.16425 -10.15977
 Alpha  occ. eigenvalues --  -10.15790 -10.14870 -10.14673 -10.14219 -10.13882
 Alpha  occ. eigenvalues --  -10.13581 -10.13173 -10.12847 -10.12316 -10.11695
 Alpha  occ. eigenvalues --   -8.14220  -6.10601  -6.10357  -6.10226  -1.18911
 Alpha  occ. eigenvalues --   -1.14882  -1.03682  -1.01209  -0.97984  -0.94548
 Alpha  occ. eigenvalues --   -0.93881  -0.84355  -0.84031  -0.83714  -0.81429
 Alpha  occ. eigenvalues --   -0.79815  -0.78091  -0.75379  -0.73942  -0.73315
 Alpha  occ. eigenvalues --   -0.72212  -0.69623  -0.69251  -0.68585  -0.67641
 Alpha  occ. eigenvalues --   -0.66705  -0.65716  -0.62792  -0.60922  -0.59606
 Alpha  occ. eigenvalues --   -0.58604  -0.58270  -0.57348  -0.56299  -0.54862
 Alpha  occ. eigenvalues --   -0.53665  -0.52539  -0.51550  -0.50404  -0.49836
 Alpha  occ. eigenvalues --   -0.49497  -0.48772  -0.48385  -0.46996  -0.46188
 Alpha  occ. eigenvalues --   -0.45847  -0.44975  -0.44830  -0.44480  -0.43959
 Alpha  occ. eigenvalues --   -0.43737  -0.43494  -0.41568  -0.41398  -0.41183
 Alpha  occ. eigenvalues --   -0.40997  -0.40041  -0.39951  -0.38984  -0.38047
 Alpha  occ. eigenvalues --   -0.37741  -0.36704  -0.36226  -0.35795  -0.34854
 Alpha  occ. eigenvalues --   -0.34353  -0.34161  -0.32881  -0.32604  -0.31381
 Alpha  occ. eigenvalues --   -0.31189  -0.30868  -0.30667  -0.30603  -0.30011
 Alpha  occ. eigenvalues --   -0.28504  -0.27379  -0.26774  -0.26411  -0.23617
 Alpha  occ. eigenvalues --   -0.22336  -0.21826  -0.20810
 Alpha virt. eigenvalues --   -0.10016  -0.07402  -0.04928  -0.03557  -0.02144
 Alpha virt. eigenvalues --   -0.01157  -0.00630   0.01009   0.01328   0.01564
 Alpha virt. eigenvalues --    0.01678   0.01723   0.02398   0.02524   0.02869
 Alpha virt. eigenvalues --    0.03044   0.03448   0.03701   0.04212   0.04422
 Alpha virt. eigenvalues --    0.04689   0.05102   0.05346   0.05633   0.05767
 Alpha virt. eigenvalues --    0.05838   0.06122   0.06417   0.06686   0.06860
 Alpha virt. eigenvalues --    0.07178   0.07414   0.07994   0.08199   0.08438
 Alpha virt. eigenvalues --    0.08462   0.08621   0.09037   0.09307   0.09647
 Alpha virt. eigenvalues --    0.09977   0.10022   0.10342   0.11055   0.11086
 Alpha virt. eigenvalues --    0.11258   0.11377   0.11560   0.11947   0.12125
 Alpha virt. eigenvalues --    0.12411   0.12625   0.13038   0.13171   0.13652
 Alpha virt. eigenvalues --    0.13866   0.13983   0.14249   0.14516   0.14817
 Alpha virt. eigenvalues --    0.15157   0.15407   0.15674   0.15969   0.16222
 Alpha virt. eigenvalues --    0.16458   0.16566   0.16770   0.17137   0.17382
 Alpha virt. eigenvalues --    0.17560   0.17844   0.17964   0.18309   0.18473
 Alpha virt. eigenvalues --    0.18606   0.18723   0.18931   0.19170   0.19528
 Alpha virt. eigenvalues --    0.19798   0.20089   0.20456   0.20551   0.20605
 Alpha virt. eigenvalues --    0.20948   0.21484   0.21650   0.21715   0.21884
 Alpha virt. eigenvalues --    0.22012   0.22322   0.22393   0.22666   0.22825
 Alpha virt. eigenvalues --    0.23022   0.23130   0.23421   0.23673   0.23947
 Alpha virt. eigenvalues --    0.24145   0.24306   0.24421   0.24825   0.24975
 Alpha virt. eigenvalues --    0.24995   0.25363   0.25704   0.25849   0.26030
 Alpha virt. eigenvalues --    0.26268   0.26398   0.26551   0.26764   0.27202
 Alpha virt. eigenvalues --    0.27320   0.27491   0.27909   0.28309   0.28381
 Alpha virt. eigenvalues --    0.28499   0.28546   0.28819   0.29145   0.29541
 Alpha virt. eigenvalues --    0.29827   0.29999   0.30302   0.30478   0.30651
 Alpha virt. eigenvalues --    0.30913   0.31065   0.31483   0.31858   0.32049
 Alpha virt. eigenvalues --    0.32561   0.32713   0.33072   0.33367   0.33877
 Alpha virt. eigenvalues --    0.34308   0.34332   0.34852   0.35204   0.35257
 Alpha virt. eigenvalues --    0.35501   0.35807   0.35981   0.36679   0.36758
 Alpha virt. eigenvalues --    0.37266   0.37360   0.37813   0.38129   0.38691
 Alpha virt. eigenvalues --    0.39102   0.39236   0.39559   0.40081   0.40453
 Alpha virt. eigenvalues --    0.41256   0.41275   0.41660   0.42317   0.42596
 Alpha virt. eigenvalues --    0.43054   0.43204   0.43668   0.44424   0.44644
 Alpha virt. eigenvalues --    0.45171   0.45734   0.46335   0.46615   0.46855
 Alpha virt. eigenvalues --    0.47376   0.47677   0.47738   0.48742   0.49156
 Alpha virt. eigenvalues --    0.49731   0.50682   0.50978   0.51306   0.51667
 Alpha virt. eigenvalues --    0.52113   0.52539   0.52605   0.53109   0.53270
 Alpha virt. eigenvalues --    0.53580   0.53891   0.54252   0.54921   0.55774
 Alpha virt. eigenvalues --    0.56350   0.56681   0.57317   0.57721   0.57934
 Alpha virt. eigenvalues --    0.58317   0.58616   0.59530   0.59780   0.60111
 Alpha virt. eigenvalues --    0.60884   0.61243   0.61581   0.62307   0.62423
 Alpha virt. eigenvalues --    0.62869   0.63111   0.63579   0.64369   0.64747
 Alpha virt. eigenvalues --    0.64997   0.65267   0.65557   0.66679   0.66940
 Alpha virt. eigenvalues --    0.67109   0.67483   0.68029   0.68169   0.68554
 Alpha virt. eigenvalues --    0.68775   0.69319   0.69806   0.70120   0.70451
 Alpha virt. eigenvalues --    0.70826   0.71075   0.71541   0.71756   0.72482
 Alpha virt. eigenvalues --    0.72853   0.72998   0.73449   0.73781   0.74172
 Alpha virt. eigenvalues --    0.74777   0.75111   0.75584   0.76055   0.76957
 Alpha virt. eigenvalues --    0.76989   0.77270   0.77719   0.78463   0.78539
 Alpha virt. eigenvalues --    0.78884   0.79328   0.79927   0.80458   0.80569
 Alpha virt. eigenvalues --    0.80903   0.81645   0.82341   0.82873   0.83035
 Alpha virt. eigenvalues --    0.83775   0.83991   0.84362   0.85149   0.85721
 Alpha virt. eigenvalues --    0.86503   0.86876   0.87529   0.88993   0.89033
 Alpha virt. eigenvalues --    0.90946   0.91142   0.91365   0.92129   0.92655
 Alpha virt. eigenvalues --    0.92900   0.93726   0.94272   0.94487   0.95140
 Alpha virt. eigenvalues --    0.95463   0.95629   0.96634   0.97473   0.97792
 Alpha virt. eigenvalues --    0.98321   0.98885   0.99229   0.99730   1.00810
 Alpha virt. eigenvalues --    1.00901   1.01500   1.02061   1.03155   1.03288
 Alpha virt. eigenvalues --    1.03984   1.04555   1.04720   1.05009   1.05512
 Alpha virt. eigenvalues --    1.06250   1.06700   1.07402   1.07519   1.07713
 Alpha virt. eigenvalues --    1.08501   1.08921   1.09463   1.09918   1.11396
 Alpha virt. eigenvalues --    1.11581   1.11935   1.13282   1.14194   1.14420
 Alpha virt. eigenvalues --    1.14844   1.15128   1.15697   1.16059   1.16284
 Alpha virt. eigenvalues --    1.17575   1.18505   1.19230   1.20372   1.20608
 Alpha virt. eigenvalues --    1.21184   1.22519   1.22964   1.23602   1.23803
 Alpha virt. eigenvalues --    1.24879   1.25309   1.25900   1.26625   1.28288
 Alpha virt. eigenvalues --    1.30265   1.31859   1.32193   1.33428   1.34082
 Alpha virt. eigenvalues --    1.34583   1.35695   1.36600   1.37325   1.38164
 Alpha virt. eigenvalues --    1.38976   1.38989   1.39566   1.40842   1.41845
 Alpha virt. eigenvalues --    1.43095   1.43721   1.44646   1.45160   1.46305
 Alpha virt. eigenvalues --    1.47200   1.47585   1.48173   1.48579   1.49667
 Alpha virt. eigenvalues --    1.50656   1.51106   1.51480   1.51795   1.52504
 Alpha virt. eigenvalues --    1.52723   1.53322   1.53793   1.54022   1.54874
 Alpha virt. eigenvalues --    1.55390   1.55732   1.56322   1.56994   1.57256
 Alpha virt. eigenvalues --    1.57763   1.58310   1.58424   1.59264   1.60006
 Alpha virt. eigenvalues --    1.60363   1.60384   1.60635   1.61655   1.61985
 Alpha virt. eigenvalues --    1.62765   1.62981   1.63705   1.64466   1.64774
 Alpha virt. eigenvalues --    1.65387   1.66227   1.66475   1.66775   1.67827
 Alpha virt. eigenvalues --    1.68219   1.68643   1.69530   1.69771   1.70479
 Alpha virt. eigenvalues --    1.70875   1.71944   1.72398   1.73450   1.73655
 Alpha virt. eigenvalues --    1.74015   1.75075   1.75559   1.76146   1.76772
 Alpha virt. eigenvalues --    1.77206   1.78415   1.78518   1.79318   1.79713
 Alpha virt. eigenvalues --    1.80162   1.82345   1.83062   1.83463   1.83514
 Alpha virt. eigenvalues --    1.84215   1.84985   1.85909   1.86623   1.87406
 Alpha virt. eigenvalues --    1.88119   1.89106   1.89688   1.90840   1.91646
 Alpha virt. eigenvalues --    1.92418   1.93137   1.93647   1.94118   1.95541
 Alpha virt. eigenvalues --    1.95687   1.96610   1.97711   1.98848   1.99388
 Alpha virt. eigenvalues --    2.00016   2.00721   2.01102   2.01734   2.02179
 Alpha virt. eigenvalues --    2.03083   2.04550   2.05027   2.05384   2.05911
 Alpha virt. eigenvalues --    2.06490   2.06908   2.07748   2.08574   2.09058
 Alpha virt. eigenvalues --    2.09954   2.10312   2.11688   2.12597   2.12790
 Alpha virt. eigenvalues --    2.14309   2.14597   2.16114   2.16671   2.17303
 Alpha virt. eigenvalues --    2.18419   2.19906   2.21009   2.22165   2.22551
 Alpha virt. eigenvalues --    2.23120   2.23550   2.24328   2.25619   2.26099
 Alpha virt. eigenvalues --    2.27041   2.27788   2.28846   2.31468   2.32698
 Alpha virt. eigenvalues --    2.33835   2.34644   2.36176   2.36741   2.37748
 Alpha virt. eigenvalues --    2.39942   2.40681   2.41179   2.42139   2.43684
 Alpha virt. eigenvalues --    2.44137   2.44886   2.45531   2.47072   2.47205
 Alpha virt. eigenvalues --    2.47762   2.48371   2.49684   2.49883   2.50397
 Alpha virt. eigenvalues --    2.51464   2.51759   2.52628   2.52939   2.53559
 Alpha virt. eigenvalues --    2.54289   2.54828   2.55205   2.56647   2.57080
 Alpha virt. eigenvalues --    2.57932   2.58033   2.58912   2.59421   2.59939
 Alpha virt. eigenvalues --    2.60190   2.60815   2.61343   2.61444   2.62298
 Alpha virt. eigenvalues --    2.63496   2.64213   2.64825   2.65592   2.65951
 Alpha virt. eigenvalues --    2.66325   2.67341   2.68196   2.69652   2.70496
 Alpha virt. eigenvalues --    2.71426   2.71797   2.72791   2.73504   2.73844
 Alpha virt. eigenvalues --    2.74654   2.75844   2.76815   2.77032   2.77799
 Alpha virt. eigenvalues --    2.78850   2.79567   2.80636   2.81522   2.81968
 Alpha virt. eigenvalues --    2.82100   2.83282   2.83810   2.84013   2.84582
 Alpha virt. eigenvalues --    2.85576   2.85911   2.86365   2.87693   2.88324
 Alpha virt. eigenvalues --    2.88528   2.89501   2.90308   2.90595   2.91259
 Alpha virt. eigenvalues --    2.91765   2.93084   2.93651   2.94654   2.95135
 Alpha virt. eigenvalues --    2.95427   2.97353   2.98383   2.99570   3.00392
 Alpha virt. eigenvalues --    3.01325   3.01975   3.03226   3.03859   3.04882
 Alpha virt. eigenvalues --    3.06769   3.07560   3.08147   3.09439   3.10742
 Alpha virt. eigenvalues --    3.11407   3.12068   3.13674   3.14726   3.15103
 Alpha virt. eigenvalues --    3.15429   3.16137   3.18225   3.19143   3.20287
 Alpha virt. eigenvalues --    3.20874   3.23061   3.24239   3.25501   3.29528
 Alpha virt. eigenvalues --    3.29930   3.30270   3.31418   3.33163   3.34128
 Alpha virt. eigenvalues --    3.36162   3.39738   3.43566   3.44936   3.46514
 Alpha virt. eigenvalues --    3.47361   3.50300   3.51771   3.55589   3.58785
 Alpha virt. eigenvalues --    3.60564   3.63800   3.65151   3.67401   3.70026
 Alpha virt. eigenvalues --    3.71207   3.75140   3.76801   3.77329   3.79763
 Alpha virt. eigenvalues --    3.80952   3.81881   3.82793   3.84998   3.85617
 Alpha virt. eigenvalues --    3.86507   3.86625   3.88049   3.89369   3.90081
 Alpha virt. eigenvalues --    3.91691   3.93823   3.94051   3.94782   3.95957
 Alpha virt. eigenvalues --    3.99149   3.99892   4.03806   4.04513   4.07410
 Alpha virt. eigenvalues --    4.13647   4.20135   4.20753   4.21562   4.25889
 Alpha virt. eigenvalues --    4.27969   4.28580   4.33242   4.33654   4.38881
 Alpha virt. eigenvalues --    4.41609   4.42070   4.43011   4.48902   4.50337
 Alpha virt. eigenvalues --    4.53434   4.65552   4.67339   4.91164   4.94110
 Alpha virt. eigenvalues --    5.10373   5.16289   5.20221   5.20836   5.23663
 Alpha virt. eigenvalues --    5.30455   5.33168   5.36813   5.39362   5.65062
 Alpha virt. eigenvalues --    6.02483   8.31056  17.43604  17.50834  17.68279
 Alpha virt. eigenvalues --   23.65028  23.70267  23.75992  23.80177  23.82747
 Alpha virt. eigenvalues --   23.91678  23.94315  23.95129  23.95910  23.96519
 Alpha virt. eigenvalues --   23.99799  24.02870  24.03115  24.03790  24.04777
 Alpha virt. eigenvalues --   24.06858  24.07150  24.11134  24.13305  24.20508
 Alpha virt. eigenvalues --   24.21653  24.30977  35.49147  35.56298  35.70059
 Alpha virt. eigenvalues --   35.70403  49.91790  49.99533  50.01026 189.45312
          Condensed to atoms (all electrons):
 Mulliken charges:
               1
     1  C   -0.334955
     2  C   -0.733592
     3  C   -0.120129
     4  C   -0.282352
     5  C   -0.084867
     6  H    0.140295
     7  H    0.092829
     8  H    0.128294
     9  N    0.077060
    10  C    0.457923
    11  C   -0.341708
    12  C   -1.346041
    13  C   -0.554602
    14  H    0.123654
    15  C    0.293859
    16  H    0.055809
    17  C    0.803600
    18  H    0.159309
    19  H    0.101374
    20  C   -0.703889
    21  H    0.170985
    22  H    0.144754
    23  C    0.395681
    24  C   -0.543501
    25  H    0.166743
    26  H    0.133256
    27  H    0.133119
    28  C   -0.374253
    29  H    0.114800
    30  H    0.128546
    31  H    0.138346
    32  C   -0.528187
    33  H    0.133253
    34  H    0.134153
    35  H    0.132258
    36  S    1.261731
    37  O    0.015752
    38  O   -0.094077
    39  N   -0.298090
    40  H    0.348390
    41  C   -1.379314
    42  C    0.471574
    43  C   -0.130219
    44  C    0.197002
    45  H    0.141920
    46  N    0.233799
    47  N    0.186852
    48  C   -0.522398
    49  H    0.157481
    50  H    0.172738
    51  H    0.163290
    52  O    0.241383
    53  C   -0.133779
    54  H    0.209965
    55  H    0.166579
    56  H    0.177600
 Sum of Mulliken charges =   0.00000
 Mulliken charges with hydrogens summed into heavy atoms:
               1
     1  C   -0.334955
     2  C   -0.733592
     3  C   -0.120129
     4  C   -0.189523
     5  C    0.043427
     9  N    0.077060
    10  C    0.457923
    11  C   -0.218054
    12  C   -1.290232
    13  C   -0.395293
    15  C    0.395233
    17  C    0.803600
    20  C   -0.388150
    23  C    0.395681
    24  C   -0.110384
    28  C    0.007439
    32  C   -0.128524
    36  S    1.261731
    37  O    0.015752
    38  O   -0.094077
    39  N    0.050300
    41  C   -1.379314
    42  C    0.471574
    43  C    0.011701
    44  C    0.197002
    46  N    0.233799
    47  N    0.186852
    48  C   -0.028889
    52  O    0.381678
    53  C    0.420364
 Electronic spatial extent (au):  <R**2>=          16039.2195
 Charge=              0.0000 electrons
 Dipole moment (field-independent basis, Debye):
    X=             10.8688    Y=             -0.8537    Z=              2.4822  Tot=             11.1813
 Quadrupole moment (field-independent basis, Debye-Ang):
   XX=           -142.0866   YY=           -178.2150   ZZ=           -188.5393
   XY=              0.2039   XZ=              3.9935   YZ=             -2.6173
 Traceless Quadrupole moment (field-independent basis, Debye-Ang):
   XX=             27.5270   YY=             -8.6013   ZZ=            -18.9256
   XY=              0.2039   XZ=              3.9935   YZ=             -2.6173
 Octapole moment (field-independent basis, Debye-Ang**2):
  XXX=            312.1653  YYY=             -1.6512  ZZZ=             16.5301  XYY=             77.6563
  XXY=             -6.5297  XXZ=             22.8122  XZZ=             61.5138  YZZ=            -32.3089
  YYZ=              9.1434  XYZ=            -29.2994
 Hexadecapole moment (field-independent basis, Debye-Ang**3):
 XXXX=         -16871.2149 YYYY=          -2805.0944 ZZZZ=          -1692.6958 XXXY=            -67.7113
 XXXZ=            157.7546 YYYX=             44.2359 YYYZ=             -3.1024 ZZZX=             69.6370
 ZZZY=             -8.7773 XXYY=          -3156.3416 XXZZ=          -3095.2772 YYZZ=           -694.6876
 XXYZ=           -136.3743 YYXZ=             65.5264 ZZXY=            -75.6285
 N-N= 3.220537873080D+03 E-N=-1.041296875933D+04  KE= 1.693390083603D+03
 There are a total of      470148 grid points.
 ElSum from          density=      225.9996576193
 ElSum from atomic densities=      225.9985558094

 Hirshfeld populations at iteration   1 (CX, CA, CB, DipXYZ):
               1          2          3          4          5          6
     1  C    0.000000   2.959547   2.959547  -0.034816   0.022527   0.013479
     2  C    0.000000   3.026062   3.026062  -0.051634  -0.072113  -0.042408
     3  C    0.000000   3.054733   3.054733   0.043245   0.024075   0.021988
     4  C    0.000000   3.035660   3.035660   0.038124   0.036237  -0.000174
     5  C    0.000000   2.980973   2.980973  -0.031907   0.053068   0.030693
     6  H    0.000001   0.483172   0.483172   0.043672  -0.021087  -0.046575
     7  H    0.000001   0.483752   0.483752   0.123953   0.081604   0.009026
     8  H    0.000003   0.473089   0.473089   0.012767   0.139404   0.075081
     9  N    0.000003   3.590413   3.590413   0.120468  -0.077546  -0.080791
    10  C    0.000000   3.015058   3.015058   0.043807   0.035841  -0.000100
    11  C    0.000000   3.022812   3.022812  -0.000373   0.048671   0.014221
    12  C    0.000000   3.036608   3.036608  -0.011702  -0.017853   0.013586
    13  C    0.000000   3.028236   3.028236  -0.073880   0.019282   0.015684
    14  H    0.000003   0.481557   0.481557  -0.017317   0.127048   0.062620
    15  C    0.000000   3.028035   3.028035  -0.001293  -0.054696  -0.028772
    16  H    0.000000   0.498644   0.498644   0.041122  -0.039450  -0.037897
    17  C    0.000000   2.994582   2.994582  -0.072977  -0.022520   0.000028
    18  H    0.000000   0.481559   0.481559  -0.059984   0.085444   0.056429
    19  H    0.000002   0.480099   0.480099  -0.004938  -0.137642  -0.065150
    20  C    0.000000   3.029328   3.029328   0.006051   0.006378  -0.000285
    21  H    0.000001   0.482163   0.482163  -0.001659  -0.081540   0.121370
    22  H    0.000000   0.482161   0.482161  -0.008633  -0.085207  -0.116012
    23  C    0.000000   2.988143   2.988143  -0.000649   0.004101   0.002832
    24  C    0.000000   3.053634   3.053634  -0.002472  -0.004471   0.006572
    25  H    0.000001   0.484170   0.484170   0.102848   0.080443  -0.008630
    26  H    0.000001   0.483721   0.483721  -0.002665  -0.085538  -0.116759
    27  H    0.000001   0.485042   0.485042  -0.111560   0.089321  -0.000806
    28  C    0.000000   3.051310   3.051310   0.024949   0.000376  -0.014235
    29  H    0.000000   0.483832   0.483832   0.066008   0.088672   0.022126
    30  H    0.000001   0.486425   0.486425  -0.105543   0.091181  -0.003553
    31  H    0.000001   0.484239   0.484239   0.001800  -0.080301   0.116640
    32  C    0.000000   3.052193   3.052193   0.008404   0.005043  -0.001495
    33  H    0.000001   0.484533   0.484533  -0.002812  -0.080258   0.118142
    34  H    0.000001   0.484109   0.484109  -0.111244   0.090365  -0.002402
    35  H    0.000001   0.484086   0.484086  -0.003177  -0.083779  -0.116223
    36  S    0.000000   7.723170   7.723170   0.073397   0.008762   0.000911
    37  O    0.000001   4.137593   4.137593  -0.082483   0.090858  -0.049473
    38  O    0.000019   4.154952   4.154952   0.000144  -0.021487   0.124171
    39  N    0.000001   3.580913   3.580913  -0.051208  -0.118336   0.065967
    40  H    0.000005   0.426737   0.426737   0.000426  -0.174502  -0.126664
    41  C    0.000000   2.951823   2.951823  -0.039073  -0.014819  -0.061624
    42  C    0.000000   2.927129   2.927129   0.010704   0.160774  -0.043007
    43  C    0.000000   2.979918   2.979918  -0.022479  -0.062494   0.020845
    44  C    0.000000   2.955400   2.955400   0.030339   0.021110   0.049266
    45  H    0.000002   0.466107   0.466107  -0.004016  -0.150472   0.076462
    46  N    0.000002   3.576062   3.576062   0.066915   0.110053   0.069707
    47  N    0.000000   3.579326   3.579326  -0.062742  -0.085162  -0.040804
    48  C    0.000000   3.043037   3.043037  -0.000056  -0.002071   0.004713
    49  H    0.000001   0.474054   0.474054  -0.071695  -0.107335   0.095577
    50  H    0.000001   0.474057   0.474057   0.151930  -0.048694  -0.022737
    51  H    0.000001   0.473403   0.473403   0.005037   0.132355   0.088500
    52  O    0.000000   4.004353   4.004353   0.032968   0.040782   0.026548
    53  C    0.000000   2.999143   2.999143  -0.075353  -0.006418  -0.031176
    54  H    0.000000   0.474968   0.474968   0.038112   0.046723   0.138759
    55  H    0.000001   0.475536   0.475536   0.122695  -0.071495  -0.062768
    56  H    0.000001   0.468464   0.468464   0.016445   0.149409  -0.071697
       Tot   0.000056 112.999829 112.999829   0.105994   0.082625   0.269727

 Dip from Atomic Chgs              4.170339  -0.419617   0.707464
         Total Dipole              4.276332  -0.336992   0.977190

 Hirshfeld charges, spin densities, dipoles, and CM5 charges using IRadAn=      4:
              Q-H        S-H        Dx         Dy         Dz        Q-CM5   
     1  C    0.080905   0.000000  -0.034816   0.022527   0.013479   0.152637
     2  C   -0.052124   0.000000  -0.051634  -0.072113  -0.042408  -0.059306
     3  C   -0.109466   0.000000   0.043245   0.024075   0.021988  -0.154741
     4  C   -0.071321   0.000000   0.038124   0.036237  -0.000174  -0.122189
     5  C    0.038053   0.000000  -0.031907   0.053068   0.030693   0.058923
     6  H    0.033656   0.000000   0.043672  -0.021087  -0.046575   0.281516
     7  H    0.032496   0.000000   0.123953   0.081604   0.009026   0.093617
     8  H    0.053821   0.000000   0.012767   0.139404   0.075081   0.120410
     9  N   -0.180826   0.000000   0.120468  -0.077546  -0.080791  -0.366234
    10  C   -0.030116   0.000000   0.043807   0.035841  -0.000100  -0.033038
    11  C   -0.045624   0.000000  -0.000373   0.048671   0.014221  -0.098624
    12  C   -0.073217   0.000000  -0.011702  -0.017853   0.013586  -0.124492
    13  C   -0.056471   0.000000  -0.073880   0.019282   0.015684  -0.120845
    14  H    0.036886   0.000000  -0.017317   0.127048   0.062620   0.098986
    15  C   -0.056069   0.000000  -0.001293  -0.054696  -0.028772  -0.111371
    16  H    0.002712   0.000000   0.041122  -0.039450  -0.037897   0.121906
    17  C    0.010836   0.000000  -0.072977  -0.022520   0.000028  -0.006569
    18  H    0.036882   0.000000  -0.059984   0.085444   0.056429   0.104672
    19  H    0.039802   0.000000  -0.004938  -0.137642  -0.065150   0.099169
    20  C   -0.058656   0.000000   0.006051   0.006378  -0.000285  -0.166274
    21  H    0.035674   0.000000  -0.001659  -0.081540   0.121370   0.095664
    22  H    0.035677   0.000000  -0.008633  -0.085207  -0.116012   0.096032
    23  C    0.023714   0.000000  -0.000649   0.004101   0.002832  -0.016072
    24  C   -0.107267   0.000000  -0.002472  -0.004471   0.006572  -0.263186
    25  H    0.031660   0.000000   0.102848   0.080443  -0.008630   0.090518
    26  H    0.032557   0.000000  -0.002665  -0.085538  -0.116759   0.088380
    27  H    0.029916   0.000000  -0.111560   0.089321  -0.000806   0.085674
    28  C   -0.102620   0.000000   0.024949   0.000376  -0.014235  -0.265734
    29  H    0.032336   0.000000   0.066008   0.088672   0.022126   0.097483
    30  H    0.027150   0.000000  -0.105543   0.091181  -0.003553   0.082983
    31  H    0.031522   0.000000   0.001800  -0.080301   0.116640   0.087531
    32  C   -0.104386   0.000000   0.008404   0.005043  -0.001495  -0.260141
    33  H    0.030934   0.000000  -0.002812  -0.080258   0.118142   0.086385
    34  H    0.031781   0.000000  -0.111244   0.090365  -0.002402   0.087311
    35  H    0.031829   0.000000  -0.003177  -0.083779  -0.116223   0.087143
    36  S    0.553659   0.000000   0.073397   0.008762   0.000911   0.727403
    37  O   -0.275186   0.000000  -0.082483   0.090858  -0.049473  -0.387951
    38  O   -0.309905   0.000000   0.000144  -0.021487   0.124171  -0.372490
    39  N   -0.161825   0.000000  -0.051208  -0.118336   0.065967  -0.475708
    40  H    0.146526   0.000000   0.000426  -0.174502  -0.126664   0.353356
    41  C    0.096354   0.000000  -0.039073  -0.014819  -0.061624   0.229129
    42  C    0.145741   0.000000   0.010704   0.160774  -0.043007   0.242040
    43  C    0.040164   0.000000  -0.022479  -0.062494   0.020845   0.069497
    44  C    0.089201   0.000000   0.030339   0.021110   0.049266   0.156135
    45  H    0.067787   0.000000  -0.004016  -0.150472   0.076462   0.136293
    46  N   -0.152124   0.000000   0.066915   0.110053   0.069707  -0.333756
    47  N   -0.158653   0.000000  -0.062742  -0.085162  -0.040804  -0.347097
    48  C   -0.086075   0.000000  -0.000056  -0.002071   0.004713  -0.233222
    49  H    0.051892   0.000000  -0.071695  -0.107335   0.095577   0.107210
    50  H    0.051885   0.000000   0.151930  -0.048694  -0.022737   0.107691
    51  H    0.053193   0.000000   0.005037   0.132355   0.088500   0.110581
    52  O   -0.008707   0.000000   0.032968   0.040782   0.026548  -0.267426
    53  C    0.001714   0.000000  -0.075353  -0.006418  -0.031176  -0.127980
    54  H    0.050064   0.000000   0.038112   0.046723   0.138759   0.119173
    55  H    0.048928   0.000000   0.122695  -0.071495  -0.062768   0.113841
    56  H    0.063073   0.000000   0.016445   0.149409  -0.071697   0.125500
       Tot   0.000342   0.000000   0.105994   0.082625   0.269727   0.000342
 Hirshfeld charges with hydrogens summed into heavy atoms:
              Q-H       Q-CM5   
     1  C    0.080905   0.152637
     2  C   -0.052124  -0.059306
     3  C   -0.109466  -0.154741
     4  C   -0.038825  -0.028572
     5  C    0.091875   0.179332
     9  N   -0.180826  -0.366234
    10  C   -0.030116  -0.033038
    11  C   -0.008739   0.000362
    12  C   -0.070505  -0.002586
    13  C   -0.019590  -0.016173
    15  C   -0.016268  -0.012201
    17  C    0.010836  -0.006569
    20  C    0.012696   0.025422
    23  C    0.023714  -0.016072
    24  C   -0.013134   0.001386
    28  C   -0.011612   0.002263
    32  C   -0.009842   0.000697
    36  S    0.553659   0.727403
    37  O   -0.275186  -0.387951
    38  O   -0.309905  -0.372490
    39  N   -0.015300  -0.122353
    41  C    0.096354   0.229129
    42  C    0.145741   0.242040
    43  C    0.107951   0.205790
    44  C    0.089201   0.156135
    46  N   -0.152124  -0.333756
    47  N   -0.158653  -0.347097
    48  C    0.070896   0.092260
    52  O    0.024949   0.014090
    53  C    0.163779   0.230534
 
 EQQ= 0.000000000000E+00 EQD= 0.000000000000E+00 EDD= 0.240532082802E-02
 EQQ+QD+DD= 0.240532082802E-02
 
          MBS Condensed to atoms (all electrons):
 MBS Mulliken charges:
               1
     1  C    0.173985
     2  C   -0.047355
     3  C   -0.195838
     4  C   -0.150421
     5  C    0.065673
     6  H    0.284079
     7  H    0.086086
     8  H    0.121727
     9  N   -0.368725
    10  C   -0.041284
    11  C   -0.101212
    12  C   -0.108869
    13  C   -0.143465
    14  H    0.119630
    15  C   -0.128733
    16  H    0.189698
    17  C    0.001713
    18  H    0.115871
    19  H    0.097589
    20  C   -0.169871
    21  H    0.095073
    22  H    0.088923
    23  C    0.059693
    24  C   -0.284736
    25  H    0.101263
    26  H    0.084717
    27  H    0.081790
    28  C   -0.277168
    29  H    0.110911
    30  H    0.077670
    31  H    0.080351
    32  C   -0.272541
    33  H    0.084257
    34  H    0.086351
    35  H    0.084134
    36  S    0.528922
    37  O   -0.369973
    38  O   -0.358655
    39  N   -0.403631
    40  H    0.316040
    41  C    0.227543
    42  C    0.278053
    43  C    0.044378
    44  C    0.163228
    45  H    0.142230
    46  N   -0.305137
    47  N   -0.347333
    48  C   -0.283774
    49  H    0.116231
    50  H    0.124506
    51  H    0.128006
    52  O   -0.294079
    53  C   -0.119966
    54  H    0.147655
    55  H    0.128725
    56  H    0.136068
 Sum of MBS Mulliken charges =   0.00000
 MBS Mulliken charges with hydrogens summed into heavy atoms:
               1
     1  C    0.173985
     2  C   -0.047355
     3  C   -0.195838
     4  C   -0.064336
     5  C    0.187400
     9  N   -0.368725
    10  C   -0.041284
    11  C    0.018418
    12  C    0.080829
    13  C   -0.027594
    15  C   -0.031143
    17  C    0.001713
    20  C    0.014125
    23  C    0.059693
    24  C   -0.016966
    28  C   -0.008236
    32  C   -0.017799
    36  S    0.528922
    37  O   -0.369973
    38  O   -0.358655
    39  N   -0.087592
    41  C    0.227543
    42  C    0.278053
    43  C    0.186608
    44  C    0.163228
    46  N   -0.305137
    47  N   -0.347333
    48  C    0.084968
    52  O   -0.009999
    53  C    0.292482
 Breneman (CHELPG) radii used.
 Generate Potential Derived Charges using the Breneman model, NDens= 1.
 Grid spacing= 0.300 Box extension= 2.800
 NStep X,Y,Z=   70     47     40   Total possible points=      131600
 Number of Points to Fit=   28377

 **********************************************************************

            Electrostatic Properties Using The SCF Density

 **********************************************************************

       Atomic Center    1 is at  -0.098389  1.580034  0.152504
       Atomic Center    2 is at   1.013877  1.012397 -0.493951
       Atomic Center    3 is at   2.241442  1.673302 -0.446026
       Atomic Center    4 is at   2.324948  2.896991  0.217077
       Atomic Center    5 is at   1.178160  3.427125  0.822869
       Atomic Center    6 is at   3.106302  1.249337 -0.913544
       Atomic Center    7 is at   3.255251  3.425992  0.261152
       Atomic Center    8 is at   1.235156  4.366499  1.335626
       Atomic Center    9 is at   0.010357  2.768917  0.767848
       Atomic Center   10 is at  -1.447232  0.832380  0.173256
       Atomic Center   11 is at  -2.570958  1.404910  0.793405
       Atomic Center   12 is at  -1.548739 -0.430716 -0.424287
       Atomic Center   13 is at  -3.785036  0.699431  0.839009
       Atomic Center   14 is at  -2.501821  2.377454  1.234776
       Atomic Center   15 is at  -2.757414 -1.134517 -0.369895
       Atomic Center   16 is at  -0.702801 -0.859175 -0.916302
       Atomic Center   17 is at  -3.871116 -0.578004  0.265615
       Atomic Center   18 is at  -4.641031  1.134464  1.311001
       Atomic Center   19 is at  -2.829991 -2.103036 -0.817618
       Atomic Center   20 is at  -5.178296 -1.388355  0.324427
       Atomic Center   21 is at  -5.192077 -1.979256  1.214665
       Atomic Center   22 is at  -5.233479 -2.027155 -0.532264
       Atomic Center   23 is at  -6.383468 -0.435683  0.321694
       Atomic Center   24 is at  -6.337088  0.430682 -0.949815
       Atomic Center   25 is at  -5.433857  1.003577 -0.956590
       Atomic Center   26 is at  -6.365088 -0.200940 -1.812933
       Atomic Center   27 is at  -7.177529  1.090349 -0.963391
       Atomic Center   28 is at  -6.328698  0.469594  1.564446
       Atomic Center   29 is at  -5.427317  1.043733  1.548275
       Atomic Center   30 is at  -7.170969  1.127260  1.563754
       Atomic Center   31 is at  -6.349408 -0.136272  2.446098
       Atomic Center   32 is at  -7.689262 -1.256368  0.340537
       Atomic Center   33 is at  -7.721033 -1.859406  1.223873
       Atomic Center   34 is at  -8.527112 -0.591831  0.330761
       Atomic Center   35 is at  -7.725456 -1.889161 -0.523082
       Atomic Center   36 is at   0.879763 -0.532525 -1.374017
       Atomic Center   37 is at   0.335225 -1.570042 -0.485501
       Atomic Center   38 is at  -0.015348 -0.356325 -2.529713
       Atomic Center   39 is at   2.434494 -1.014407 -1.901449
       Atomic Center   40 is at   2.369358 -1.864837 -2.426135
       Atomic Center   41 is at   3.272079 -1.226868 -0.711101
       Atomic Center   42 is at   4.021188 -0.169577 -0.176585
       Atomic Center   43 is at   3.996076 -2.607533  1.003681
       Atomic Center   44 is at   4.706516 -1.538970  1.566338
       Atomic Center   45 is at   4.000126 -3.563784  1.478795
       Atomic Center   46 is at   3.309271 -2.430740 -0.130624
       Atomic Center   47 is at   4.724422 -0.352075  0.947796
       Atomic Center   48 is at   5.462795 -1.722654  2.894601
       Atomic Center   49 is at   4.963215 -2.457826  3.491369
       Atomic Center   50 is at   6.461177 -2.044783  2.694759
       Atomic Center   51 is at   5.485488 -0.792488  3.422163
       Atomic Center   52 is at   4.033883  1.103365 -0.822962
       Atomic Center   53 is at   5.289144  1.749269 -0.580438
       Atomic Center   54 is at   5.426584  1.874395  0.475357
       Atomic Center   55 is at   6.084986  1.151044 -0.973690
       Atomic Center   56 is at   5.292036  2.707183 -1.056359
   28377 points will be used for fitting atomic charges
 Fitting point charges to electrostatic potential
 Charges from ESP fit, RMS=   0.00360 RRMS=   0.15388:
 ESP charges:
               1
     1  C    0.642419
     2  C   -0.550313
     3  C    0.368016
     4  C   -0.400740
     5  C    0.331363
     6  H   -0.135408
     7  H    0.118762
     8  H    0.040595
     9  N   -0.591189
    10  C   -0.335399
    11  C    0.108454
    12  C    0.134248
    13  C   -0.343546
    14  H    0.016469
    15  C   -0.293104
    16  H    0.169973
    17  C    0.221145
    18  H    0.175602
    19  H    0.121259
    20  C   -0.244424
    21  H    0.015840
    22  H    0.032177
    23  C    0.812070
    24  C   -0.321317
    25  H    0.029588
    26  H    0.032037
    27  H    0.041049
    28  C   -0.337225
    29  H    0.079779
    30  H    0.021957
    31  H    0.019403
    32  C   -0.359754
    33  H    0.050038
    34  H    0.045611
    35  H    0.044919
    36  S    1.232262
    37  O   -0.583975
    38  O   -0.589970
    39  N   -0.788928
    40  H    0.431313
    41  C    0.507847
    42  C    0.275015
    43  C    0.145880
    44  C    0.275381
    45  H    0.093974
    46  N   -0.498947
    47  N   -0.409464
    48  C   -0.281757
    49  H    0.085980
    50  H    0.091994
    51  H    0.108486
    52  O   -0.055777
    53  C    0.025055
    54  H    0.043775
    55  H    0.039718
    56  H    0.091783
 Sum of ESP charges =   0.00000
 ESP charges with hydrogens summed into heavy atoms:
               1
     1  C    0.642419
     2  C   -0.550313
     3  C    0.368016
     4  C   -0.281979
     5  C    0.371958
     9  N   -0.591189
    10  C   -0.335399
    11  C    0.124923
    12  C    0.304221
    13  C   -0.167944
    15  C   -0.171845
    17  C    0.221145
    20  C   -0.196407
    23  C    0.812070
    24  C   -0.218643
    28  C   -0.216087
    32  C   -0.219185
    36  S    1.232262
    37  O   -0.583975
    38  O   -0.589970
    39  N   -0.357615
    41  C    0.507847
    42  C    0.275015
    43  C    0.239853
    44  C    0.275381
    46  N   -0.498947
    47  N   -0.409464
    48  C    0.004703
    52  O   -0.191185
    53  C    0.200331
 Charge=   0.00000 Dipole=    10.8672    -0.8179     2.4218 Tot=    11.1638
 -----------------------------------------------------------------

              Electrostatic Properties (Atomic Units)

 -----------------------------------------------------------------
    Center     Electric         -------- Electric Field --------
               Potential          X             Y             Z
 -----------------------------------------------------------------
    1 Atom    -14.718946
    2 Atom    -14.741793
    3 Atom    -14.819960
    4 Atom    -14.770966
    5 Atom    -14.735658
    6 Atom     -0.973147
    7 Atom     -1.099534
    8 Atom     -1.101860
    9 Atom    -18.409913
   10 Atom    -14.791595
   11 Atom    -14.802976
   12 Atom    -14.840199
   13 Atom    -14.821517
   14 Atom     -1.141476
   15 Atom    -14.812395
   16 Atom     -1.093987
   17 Atom    -14.791392
   18 Atom     -1.091409
   19 Atom     -1.143427
   20 Atom    -14.800254
   21 Atom     -1.141523
   22 Atom     -1.144099
   23 Atom    -14.779451
   24 Atom    -14.819422
   25 Atom     -1.152207
   26 Atom     -1.149377
[...]
 9430,0.00000308,-0.00001701,-0.00010409,-0.00005571,-0.00018919,-0.000
 12135,-0.00016436,0.00003910,-0.00015250,0.05380161,0.01477643,-0.1733
 4592,0.08248864,0.02841966,0.47487000,-0.00007236,0.00011394,0.0000229
 1,-0.00000063,-0.00000838,0.00003600,-0.00008620,0.00000888,-0.0000057
 7,0.00004258,-0.00005104,-0.00002503,0.00002928,0.00004711,-0.00001721
 ,-0.00001586,0.00000686,-0.00000410,0.00001064,-0.00001084,0.00003422,
 0.00001595,0.00000633,0.00001269,0.00006115,-0.00004178,-0.00002706,0.
 00000742,0.00000258,-0.00000695,0.00006649,0.00000475,0.00000111,-0.00
 002123,-0.00001358,0.00000886,0.00000659,-0.00001243,0.00000775,-0.000
 04696,0.00000398,-0.00002485,-0.00000614,-0.00000934,0.00001347,-0.000
 00379,0.00000574,0.00000645,0.00000661,-0.00000818,-0.00000396,-0.0000
 0433,-0.00001692,-0.00000204,0.00000100,-0.00000113,0.00000251,-0.0000
 0147,-0.00000065,-0.00000458,0.00000149,-0.00000450,0.00000295,-0.0000
 0126,0.,0.00000171,0.00000151,-0.00000093,0.00000098,0.00000008,0.0000
 0144,0.00000024,0.00000022,-0.00000086,-0.00000030,-0.00000098,-0.0000
 0018,0.00000041,0.00000029,0.00000079,0.00000042,-0.00000002,0.0000016
 7,-0.00000307,-0.00000034,-0.00000026,-0.00000167,-0.00000021,0.000001
 06,0.00000116,0.00000030,-0.00000242,0.00000284,-0.00000033,0.00000018
 ,-0.00000165,0.00000019,-0.00000097,0.00000154,0.00000065,0.00000024,0
 .00000049,-0.00000080,-0.00000010,0.00000009,0.00000104,-0.00001990,-0
 .00009109,0.00000152,-0.00004933,0.00001424,0.00002489,-0.00002121,-0.
 00003026,-0.00004818,-0.00001077,-0.00011035,-0.00003192,0.00001233,-0
 .00002430,-0.00102688,0.00050214,0.00052420,0.00397712,-0.00027596,0.0
 0138874,0.00001395,0.00003487,-0.00088559,-0.00112870,0.00033588,0.000
 33052,0.00007828,-0.00018451,0.00002379,0.00069413,0.00035555,0.000558
 72,0.00026861,-0.00115097,-0.00050610,0.00004313,-0.00004742,0.0000536
 7,-0.00000156,0.00001402,-0.00000632,0.00000862,-0.00000133,-0.0000196
 7,-0.00001907,0.00000292,-0.00003427,0.00723772,-0.01669386,0.01809924
 ,-0.12431621,0.09354543,-0.08104324,0.12681512,-0.00002166,0.00001448,
 -0.00000359,0.00000540,-0.00000484,0.00001405,-0.00003269,0.00000470,0
 .00000888,0.00002407,-0.00000332,0.00000439,0.00000091,-0.00001933,0.0
 0000761,0.00000973,0.00000145,-0.00001949,-0.00000384,-0.00000199,-0.0
 0000552,0.00000620,0.00000045,0.00000418,0.00000434,0.00001556,-0.0000
 1717,0.00000420,0.00001364,0.00000067,0.00001234,0.00000572,0.00001127
 ,0.00000666,-0.00000403,-0.00000187,0.00000439,-0.00000471,0.00001134,
 -0.00002689,-0.00000317,-0.00001275,-0.00000153,0.00000530,-0.00000229
 ,-0.00000116,-0.00000032,-0.00000036,0.00000398,-0.00001120,0.00000025
 ,-0.00000203,-0.00000325,-0.00000304,-0.00000218,0.00000029,0.00000115
 ,0.00000311,-0.00000170,0.00000173,-0.00000023,0.00000015,-0.00000079,
 -0.00000171,0.00000138,0.00000061,-0.00000469,-0.00000440,-0.00000413,
 0.00000218,0.00000114,0.00000085,-0.00000202,0.00000011,-0.00000222,-0
 .00000042,-0.00000089,-0.00000048,0.00000092,0.00000235,0.00000131,0.0
 0000137,0.00000076,0.00000185,-0.00000278,-0.00000019,-0.00000178,0.00
 000083,0.00000251,0.00000149,-0.00000051,-0.00000134,-0.00000042,0.000
 00257,0.00000094,0.00000224,0.,-0.00000058,-0.00000101,0.00000038,0.00
 000244,0.00000088,-0.00000083,-0.00000061,0.00000013,0.00007121,0.0001
 1715,-0.00019083,-0.00004153,-0.00003215,0.00012086,-0.00000788,-0.000
 03049,0.00003632,-0.00003790,-0.00006266,-0.00020069,-0.00000407,-0.00
 000085,-0.00002382,-0.00073484,-0.00039867,0.00055925,0.00341024,0.001
 31482,0.00124763,0.00012141,-0.00015850,-0.00049789,-0.00069751,-0.000
 24879,-0.00015205,0.00004218,0.00000077,-0.00006002,0.00040975,0.00029
 747,0.00023415,0.00065597,0.00067867,-0.00074887,0.00001979,0.00003663
 ,0.00004233,0.00002763,0.00002418,-0.00001224,0.00000399,-0.00004190,0
 .00001123,-0.00006447,0.00001476,-0.00003941,-0.00471140,-0.00095292,0
 .00648109,0.08852856,-0.16180081,0.09472055,-0.09600403,0.16787003,0.0
 0001737,0.00022445,-0.00004585,-0.00005510,-0.00015234,-0.00002587,0.0
 0003377,0.00004660,0.00003818,0.00002879,-0.00006504,-0.00001007,-0.00
 000493,0.00002063,0.00000308,0.00002170,-0.00004347,0.00005347,-0.0000
 0122,0.00000162,-0.00000597,-0.00000595,-0.00000536,-0.00000187,-0.000
 05676,-0.00006873,0.00002300,0.00000204,0.00000471,0.00000382,0.000078
 84,0.00001109,0.00000336,-0.00001190,-0.00001569,-0.00000423,0.0000084
 5,-0.00002923,0.00002792,-0.00005953,-0.00000842,-0.00002090,-0.000010
 21,-0.00000109,0.00001342,-0.00000265,0.00001080,0.00000935,0.00000929
 ,-0.00001582,0.00000013,-0.00000536,-0.00001629,-0.00000367,-0.0000015
 8,-0.00000017,0.00000193,-0.00000002,-0.00000284,-0.00000168,-0.000000
 20,-0.00000506,0.00000244,-0.00000222,0.00000082,0.00000078,-0.0000026
 8,-0.00000635,-0.00000395,0.00000254,0.00000284,0.00000122,-0.00000127
 ,-0.00000052,-0.00000262,-0.00000171,-0.00000084,-0.00000029,0.0000012
 5,0.00000296,0.00000185,0.00000154,0.00000191,0.00000034,-0.00000276,-
 0.00000016,-0.00000323,0.00000094,0.00000345,0.00000224,-0.00000045,-0
 .00000305,0.00000205,0.00000221,0.00000087,0.00000102,-0.00000012,-0.0
 0000156,0.00000056,0.00000120,0.00000271,0.00000132,-0.00000151,-0.000
 00073,-0.00000017,0.00001447,0.00115300,-0.00005957,0.00002240,-0.0003
 9300,0.00036817,-0.00001677,-0.00022893,-0.00005202,-0.00017240,-0.000
 27276,-0.00008873,0.00003330,-0.00005655,0.00000914,0.00130407,0.00005
 440,-0.00040894,-0.00630935,-0.00202564,-0.00016026,0.00028355,0.00019
 381,0.00057001,0.00025806,-0.00002007,-0.00024039,-0.00002413,0.000059
 54,0.00000053,-0.00052272,-0.00037113,-0.00036253,0.00074132,0.0004455
 4,0.00107678,0.00004263,0.00000164,-0.00002509,0.00001616,0.00000462,0
 .00000502,-0.00000961,0.00000211,0.00001528,-0.00000882,0.00000824,0.0
 0002371,-0.00098507,0.02194297,-0.03079494,-0.07467176,0.09231181,-0.1
 2723091,0.07824823,-0.10803765,0.14948089,-0.00007215,-0.00001989,0.00
 005361,0.00000768,0.00001803,0.00002741,0.00000287,-0.00000428,0.00003
 367,-0.00000364,-0.00000815,0.00001655,0.00005480,-0.00005723,0.000018
 84,0.00000418,0.00000774,-0.00001999,-0.00000400,0.00000684,-0.0000216
 4,-0.00000291,-0.00000244,0.00000140,0.00002918,0.00004010,-0.00007055
 ,0.00000105,0.00000844,-0.00000146,-0.00004797,0.00000522,0.00002309,0
 .00000255,0.00000237,0.00000225,0.00000904,0.00000648,-0.00001787,0.00
 002638,0.00002407,0.00000092,0.00000699,-0.00000579,-0.00000385,0.0000
 0004,-0.00000225,-0.00000444,0.00000376,0.00000135,0.00000189,-0.00000
 230,0.00000090,0.00000099,0.00000085,-0.00000160,-0.00000204,-0.000000
 55,0.00000167,-0.00000394,-0.00000079,-0.00000085,0.00000073,0.0000016
 5,-0.00000210,-0.00000114,0.00000238,0.00000084,0.00000248,-0.00000111
 ,-0.00000014,-0.00000054,0.00000102,0.00000016,0.00000137,0.00000035,0
 .00000040,0.00000014,-0.00000041,-0.00000136,-0.00000048,-0.00000082,0
 .00000019,-0.00000080,0.00000155,0.,0.00000141,-0.00000018,-0.00000154
 ,-0.00000085,0.00000010,0.00000090,-0.00000014,-0.00000127,-0.00000061
 ,-0.00000118,-0.00000009,0.00000026,0.00000035,-0.00000014,-0.00000123
 ,-0.00000033,0.00000052,0.00000018,-0.00000005,0.00003007,-0.00001419,
 -0.00039142,-0.00001389,0.00006564,0.00017862,0.00001401,-0.00002798,0
 .00002608,-0.00006343,-0.00008476,-0.00022281,-0.00001216,0.00000793,-
 0.00003197,-0.00091588,-0.00081106,0.00084121,0.00436023,0.00320637,0.
 00159299,0.00016695,-0.00018305,-0.00089942,-0.00072799,-0.00097691,0.
 00024057,-0.00005348,0.00016117,-0.00007072,0.00065630,0.00039303,0.00
 055669,-0.00026788,0.00058612,-0.00101866,-0.00000119,0.00006607,0.000
 05972,0.00003641,-0.00000650,-0.00001475,-0.00002381,-0.00007016,-0.00
 004137,-0.00001973,0.00002410,-0.00001656,-0.00887221,0.01264277,0.016
 83790,-0.05308938,0.02393524,0.01141598,-0.00133064,0.01524295,0.00691
 471,0.05354124,-0.00000923,0.00000351,0.00002927,-0.00001422,0.0000328
 5,-0.00002240,0.00003287,-0.00003248,0.00002666,-0.00002862,-0.0000181
 9,0.00001078,0.00004629,-0.00001127,0.00000846,-0.00000178,-0.00000469
 ,0.00000366,-0.00000614,0.00000922,-0.00001373,-0.00001089,-0.00000195
 ,-0.00000385,-0.00000389,0.00001572,-0.00003413,-0.00000473,-0.0000100
 4,0.00000422,-0.00003832,-0.00000177,-0.00000402,-0.00000893,0.0000026
 3,0.00000561,0.00000320,0.00001016,-0.00002646,0.00004133,0.00001642,0
 .00000743,0.00000241,-0.00001033,0.00000121,0.00000298,0.00000147,0.00
 000183,-0.00000518,0.00001707,-0.00000029,0.00000239,0.00000395,0.0000
 0595,0.00000503,-0.00000117,-0.00000193,-0.00000650,0.00000272,-0.0000
 0607,0.00000087,-0.00000072,0.00000154,0.00000318,-0.00000311,-0.00000
 049,0.00001113,0.00000894,0.00001018,-0.00000481,-0.00000216,-0.000001
 85,0.00000441,0.00000041,0.00000491,0.00000056,0.00000206,0.00000131,-
 0.00000218,-0.00000570,-0.00000300,-0.00000307,-0.00000148,-0.00000416
 ,0.00000593,0.00000084,0.00000389,-0.00000196,-0.00000601,-0.00000347,
 0.00000122,0.00000279,0.00000063,-0.00000537,-0.00000246,-0.00000469,0
 .00000035,0.00000148,0.00000160,-0.00000118,-0.00000561,-0.00000221,0.
 00000135,0.00000150,0.00000033,-0.00001399,-0.00022134,0.00022616,0.00
 001730,0.00010899,-0.00016012,0.00001820,0.00003545,-0.00008614,-0.000
 03729,0.00008605,0.00000171,-0.00000329,-0.00000071,0.00001598,0.00038
 796,-0.00052616,0.00014784,-0.00113607,0.00034536,-0.00022931,0.000090
 83,-0.00018001,-0.00012893,0.00015593,-0.00037687,0.00052111,-0.000095
 20,0.00010902,0.00003684,0.00001468,0.00011773,0.00014595,-0.00148229,
 0.00055832,0.00003530,-0.00003612,0.00005611,-0.00001452,-0.00001799,-
 0.00001217,0.00000398,0.00001066,0.00002786,-0.00000221,0.00003202,-0.
 00002080,-0.00001093,-0.00035348,0.01317961,0.00341166,0.02965418,-0.2
 5531429,-0.10925740,0.00104312,-0.01682722,-0.00995701,-0.03027287,0.2
 6701079,0.00003402,0.00017304,-0.00004250,-0.00002276,-0.00005574,-0.0
 0005184,0.00002546,-0.00006692,0.00002999,0.00001222,-0.00002586,0.000
 04556,-0.00000505,-0.00003483,0.00001760,0.00005306,-0.00003685,-0.000
 00064,-0.00002518,0.00001175,-0.00003734,-0.00001719,-0.00000781,-0.00
 001294,-0.00009344,-0.00000252,0.00001179,-0.00000474,-0.00000852,-0.0
 0000188,0.00003402,0.00000811,-0.00000697,-0.00001219,-0.00000559,-0.0
 0000337,0.00000520,-0.00001330,0.00000760,-0.00001860,0.00000048,-0.00
 000585,-0.00001307,-0.00000620,0.00000889,0.00000530,0.00001043,0.0000
 1282,0.00000482,0.00000033,-0.00000113,-0.00000288,-0.00001011,0.00000
 072,0.00000170,0.00000100,0.00000157,-0.00000312,0.00000009,-0.0000038
 6,0.00000058,-0.00000430,0.00000262,-0.00000053,-0.00000049,0.00000054
 ,0.00000394,0.00000102,0.00000253,-0.00000051,0.00000036,-0.00000044,0
 .00000186,0.00000010,0.00000093,-0.00000135,0.00000073,0.00000069,-0.0
 0000042,-0.00000138,-0.00000040,-0.00000067,-0.00000017,-0.00000227,0.
 00000142,0.00000072,-0.00000024,-0.00000053,-0.00000116,-0.00000033,0.
 00000036,-0.00000081,0.00000192,-0.00000119,-0.00000058,-0.00000185,0.
 00000024,-0.00000031,0.00000127,0.00000013,-0.00000129,-0.00000033,-0.
 00000067,0.00000040,0.00000022,0.00012339,0.00058415,0.00077814,0.0000
 3471,-0.00028215,-0.00016845,-0.00005201,-0.00009748,-0.00018555,-0.00
 014674,-0.00008321,-0.00021524,0.00004638,-0.00007455,0.00004128,0.000
 92867,0.00065580,-0.00041641,-0.00552341,-0.00293163,-0.00004864,0.000
 16626,0.00019881,0.00053080,0.00021810,0.00016008,-0.00022965,0.000037
 36,-0.00005341,0.00001743,-0.00040676,-0.00020685,-0.00040234,0.000539
 07,0.00066533,0.00107410,0.00003397,0.00003702,-0.00002020,0.00001765,
 0.00001129,0.00000478,0.00000069,-0.00000981,0.00002982,-0.00000897,-0
 .00000049,0.00001567,0.01557099,-0.01995029,-0.02799792,0.01399139,-0.
 10432786,-0.10440543,-0.00285299,0.01507691,0.01107068,-0.02304323,0.1
 1859552,0.12325659,-0.00003649,-0.00001576,0.00011601,-0.00004615,0.00
 010584,0.00001838,0.00006188,-0.00008127,0.00008181,-0.00001125,-0.000
 01207,-0.00001245,0.00008967,-0.00002293,0.00000379,-0.00003479,0.0000
 1714,-0.00001896,0.00000383,0.00000551,0.00000729,-0.00001158,0.000001
 85,-0.00000793,0.00007904,0.00003432,-0.00008462,-0.00001072,-0.000001
 44,0.00000332,-0.00007811,-0.00000011,0.00001758,-0.00001150,0.0000119
 0,0.00001606,0.00000913,0.00001477,-0.00004208,0.00007526,0.00003717,0
 .00000896,0.00001672,-0.00002134,-0.00000161,-0.00000444,-0.00000802,-
 0.00001056,0.00000440,0.00001768,-0.00000007,-0.00000155,0.00000585,0.
 00000497,0.00000433,-0.00000573,-0.00000552,-0.00000695,0.00000380,-0.
 00000839,-0.00000095,-0.00000177,0.00000157,0.00000597,-0.00000569,-0.
 00000284,0.00000927,0.00000612,0.00001025,-0.00000494,-0.00000142,-0.0
 0000154,0.00000371,0.00000002,0.00000504,0.00000232,0.00000153,0.00000
 047,-0.00000177,-0.00000480,-0.00000228,-0.00000257,-0.00000048,-0.000
 00296,0.00000563,-0.00000030,0.00000454,-0.00000128,-0.00000515,-0.000
 00296,0.00000047,0.00000347,-0.00000092,-0.00000531,-0.00000223,-0.000
 00443,-0.00000040,0.00000117,0.00000115,-0.00000068,-0.00000487,-0.000
 00134,0.00000278,0.00000094,-0.00000059,-0.00061181,-0.00067515,-0.000
 13695,0.00020892,0.00023570,-0.00000959,0.00014432,0.00015112,0.000096
 28,0.00024067,0.00025145,0.00032181,-0.00001169,0.00003415,0.00002079,
 -0.00078792,-0.00058267,-0.00088181,0.00149940,0.00054429,0.00277054,-
 0.00006402,-0.00000960,-0.00006353,0.00014000,0.00002593,0.00017409,-0
 .00001906,0.00000345,-0.00000262,-0.00013693,0.00008913,0.00048031,0.0
 0009108,-0.00017301,0.00004886,-0.00001738,-0.00001741,0.00001284,-0.0
 0001730,-0.00001347,-0.00000715,0.00000334,-0.00000702,-0.00001370,0.0
 0000840,0.00000471,-0.00000149,-0.02114050,-0.00865420,0.00269725,-0.2
 5369027,-0.08936004,-0.07347468,-0.01125053,-0.00621844,-0.00514006,0.
 00656782,0.00201520,0.00036524,0.27874049,0.00003874,0.00008280,0.0000
 1905,0.00002684,-0.00000599,-0.00002415,-0.00014464,0.00005053,0.00003
 671,0.00008810,-0.00007200,-0.00006671,-0.00000451,0.00015492,-0.00004
 884,-0.00003279,0.00000290,0.00002141,0.00001908,-0.00002517,0.0000543
 8,0.00002610,0.00000996,0.00001827,0.00002862,-0.00006649,0.00006316,0
 .00000206,-0.00000847,-0.00000345,0.00010187,-0.00002183,-0.00004689,-
 0.00001310,-0.00001564,0.00000516,-0.00001412,-0.00001296,0.00003374,-
 0.00005092,-0.00004320,-0.00002285,-0.00000413,-0.00000028,0.00001324,
 -0.00000952,0.00000174,0.00000208,0.00000357,-0.00001179,-0.00000969,0
 .00000105,-0.00000951,-0.00000331,-0.00000192,-0.00000084,0.00000273,0
 .00000040,-0.00000411,0.00000386,0.00000077,-0.00000069,-0.00000003,-0
 .00000257,0.00000210,0.00000183,-0.00000518,-0.00000539,-0.00000507,0.
 00000225,0.00000194,0.00000146,-0.00000276,-0.00000085,-0.00000301,-0.
 00000035,-0.00000128,-0.00000045,0.00000125,0.00000368,0.00000165,0.00
 000197,0.00000193,0.00000143,-0.00000372,-0.00000080,-0.00000332,0.000
 00076,0.00000415,0.00000246,-0.00000040,-0.00000267,0.00000081,0.00000
 275,0.00000128,0.00000238,-0.00000004,-0.00000106,-0.00000043,0.000000
 84,0.00000320,0.00000130,-0.00000090,-0.00000081,-0.00000013,-0.000186
 55,-0.00001213,-0.00022770,-0.00001127,-0.00002813,0.00010274,0.000055
 35,0.00001243,0.00006280,0.00008793,0.00002930,0.00009564,-0.00001006,
 0.00001073,-0.00000067,-0.00030567,0.00001281,-0.00030583,0.00034473,0
 .00048252,0.00059761,-0.00002219,-0.00008012,-0.00000097,0.00005015,0.
 00015287,0.00012351,0.00000025,-0.00002933,0.00001311,-0.00002512,-0.0
 0004220,0.00015277,-0.00047808,0.00044801,0.00005192,-0.00001867,0.000
 01935,-0.00000588,-0.00001510,0.00000195,-0.00000368,0.00001074,0.0000
 1318,0.00001170,-0.00000801,-0.00000233,-0.00001851,-0.00628918,-0.002
 38697,0.00110800,-0.09020821,-0.09248317,-0.03231156,0.01859196,0.0101
 9301,0.00529235,-0.02390061,-0.00817029,-0.00789100,0.10228216,0.09184
 918,0.00005517,-0.00021177,-0.00006036,0.00007632,0.00002706,-0.000009
 11,0.00008472,0.00005924,-0.00009753,-0.00007648,0.00010868,0.00001487
 ,-0.00014976,-0.00002885,-0.00001768,0.00002144,0.00000122,-0.00001748
 ,-0.00000131,-0.00000180,0.00000352,0.00000627,0.,0.00000183,-0.000050
 35,0.00001456,0.00008050,-0.00000176,-0.00001975,-0.00000751,-0.000043
 30,-0.00000217,0.00001092,0.00003814,0.00002215,-0.00001749,-0.0000173
 4,0.00000662,0.00000172,0.00002456,-0.00001891,0.00002736,-0.00000374,
 0.00001209,-0.00001871,0.00000659,-0.00000624,-0.00000611,-0.00000037,
 0.00000131,0.00000551,0.00000054,0.00001558,-0.00000233,-0.00000480,0.
 00000490,-0.00000021,0.00000876,-0.00000002,0.00000864,-0.00000213,0.0
 0000527,-0.00000373,-0.00000132,0.00000299,-0.00000100,-0.00001059,-0.
 00000437,-0.00000799,0.00000398,0.,0.00000082,-0.00000321,-0.00000009,
 -0.00000279,0.00000058,-0.00000096,-0.00000124,0.00000089,0.00000295,0
 .00000161,0.00000226,-0.00000008,0.00000551,-0.00000379,-0.00000111,-0
 .00000043,0.00000136,0.00000297,0.00000112,-0.00000142,0.00000071,-0.0
 0000316,0.00000425,0.00000168,0.00000432,-0.00000054,-0.00000002,-0.00
 000212,-0.00000013,0.00000347,0.00000093,0.00000004,-0.00000085,-0.000
 00031,0.00040655,0.00014847,0.00002616,-0.00011555,-0.00003662,-0.0000
 4105,-0.00011155,-0.00003415,0.00000212,-0.00013220,-0.00007277,-0.000
 00163,0.00001207,-0.00001169,-0.00002383,0.00150852,0.00080705,0.00070
 846,0.00101518,-0.00010001,-0.00611656,-0.00022369,-0.00004707,0.00028
 019,0.00051497,0.00027766,0.00041321,-0.00003205,0.00000066,0.00007622
 ,0.00009119,-0.00009919,-0.00073643,-0.00171212,-0.00084939,0.00062348
 ,-0.00000337,-0.00001932,-0.00003802,-0.00002233,-0.00000916,0.0000057
 7,0.00000805,0.00002877,0.00001557,0.00002726,-0.00000583,0.00002356,0
 .03872739,0.01615684,0.00080146,-0.08595919,-0.03737847,-0.07466554,-0
 .01366772,-0.00856482,-0.00325794,-0.01294937,-0.00329225,-0.00270251,
 0.07265443,0.03310485,0.08471544\\0.00000180,0.00000238,-0.00000826,0.
 00000233,-0.00000227,0.00000257,-0.00000471,0.00000256,0.00000319,0.00
 000419,0.00000190,0.00000186,-0.00000066,-0.00000601,0.00000635,-0.000
 00304,-0.00000016,0.00000248,-0.00000337,-0.00000085,0.00000423,-0.000
 00160,-0.00000078,0.00000350,-0.00000708,0.00000331,0.00000458,0.00000
 529,-0.00000114,0.00000259,0.00000041,-0.00000558,0.00000198,-0.000006
 71,0.00000974,0.00000039,-0.00000496,0.00000266,0.00000465,0.00000069,
 -0.00000087,0.00000113,-0.00000140,-0.00000731,0.00000615,-0.00000036,
 0.00000022,0.00000029,0.00000479,0.00000360,-0.00001019,0.00000359,-0.
 00000084,-0.00000037,-0.00000064,0.00000118,-0.00000287,-0.00000099,-0
 .00000384,-0.00000601,0.00000254,0.00000111,0.,0.00000132,-0.00000004,
 -0.00000193,0.00000426,0.00000019,0.00000704,-0.00000375,0.00000341,-0
 .00000390,-0.00000138,-0.00000023,-0.00000031,-0.00000049,0.00000058,-
 0.00000170,0.00000006,0.00000073,-0.00000104,0.00000370,0.00000124,-0.
 00000161,-0.00000281,-0.00000069,0.00000079,0.00000045,-0.00000049,-0.
 00000065,0.00000054,-0.00000050,0.00000062,-0.00000152,0.00000113,-0.0
 0000482,0.00000191,0.,-0.00000191,0.00000098,0.00000044,-0.00000142,0.
 00000066,0.00000106,-0.00000303,-0.00000333,-0.00000148,-0.00000530,0.
 00000095,-0.00000134,0.00000154,-0.00000299,0.00000057,0.00000078,-0.0
 0000305,-0.00000058,0.00000341,-0.00000198,0.00000265,-0.00000261,-0.0
 0000314,-0.00000087,-0.00000123,-0.00000446,-0.00000208,0.00000157,-0.
 00000314,-0.00000028,-0.00000288,-0.00000130,0.00000124,0.00000030,0.0
 0000061,0.00000052,-0.00000206,0.00000545,0.00000231,-0.00000067,0.000
 00095,-0.00000084,-0.00000003,0.00000048,0.00000152,-0.00000273,0.0000
 0254,-0.00000119,-0.00000150,0.00000261,-0.00000187,-0.00000073,0.0000
 0336,-0.00000127,-0.00000013,0.00000444,0.00000112,0.00000186,0.000003
 53,-0.00000259,0.00000051,0.00000199,-0.00000066,0.00000079,0.00000137
 ,-0.00000016,0.00000255,0.00000105,-0.00000052,0.00000218\\\@


 SCIENCE AT ITS BEST PROVIDES US WITH BETTER QUESTIONS, 
 NOT ABSOLUTE ANSWERS

                                    -- NORMAN COUSINS, 1976
 Job cpu time:       1 days 11 hours 29 minutes  6.3 seconds.
 File lengths (MBytes):  RWF=   3030 Int=      0 D2E=      0 Chk=     58 Scr=      1
 Normal termination of Gaussian 09 at Thu Jan 18 12:20:19 2024.
