	You are loading a legacy vmd module, please load an up to date module instead.


	 module load container_env vmd

	Please run vmd command with crun.vmd prepend to it:
	
	 crun.vmd vmd

	 
module: Command not found.
module: Command not found.
 Entering Gaussian System, Link 0=g09
 Initial command:
 /opt/gaussian/g09/l1.exe "/tmp/G09-79.com.o10577471.tmp/Gau-1727982.inp" -scrdir="/tmp/G09-79.com.o10577471.tmp/"
 Entering Link 1 = /opt/gaussian/g09/l1.exe PID=   1727983.
  
 Copyright (c) 1988,1990,1992,1993,1995,1998,2003,2009,2013,
            Gaussian, Inc.  All Rights Reserved.
  
 This is part of the Gaussian(R) 09 program.  It is based on
 the Gaussian(R) 03 system (copyright 2003, Gaussian, Inc.),
 the Gaussian(R) 98 system (copyright 1998, Gaussian, Inc.),
 the Gaussian(R) 94 system (copyright 1995, Gaussian, Inc.),
 the Gaussian 92(TM) system (copyright 1992, Gaussian, Inc.),
 the Gaussian 90(TM) system (copyright 1990, Gaussian, Inc.),
 the Gaussian 88(TM) system (copyright 1988, Gaussian, Inc.),
 the Gaussian 86(TM) system (copyright 1986, Carnegie Mellon
 University), and the Gaussian 82(TM) system (copyright 1983,
 Carnegie Mellon University). Gaussian is a federally registered
 trademark of Gaussian, Inc.
  
 This software contains proprietary and confidential information,
 including trade secrets, belonging to Gaussian, Inc.
  
 This software is provided under written license and may be
 used, copied, transmitted, or stored only in accord with that
 written license.
  
 The following legend is applicable only to US Government
 contracts under FAR:
  
                    RESTRICTED RIGHTS LEGEND
  
 Use, reproduction and disclosure by the US Government is
 subject to restrictions as set forth in subparagraphs (a)
 and (c) of the Commercial Computer Software - Restricted
 Rights clause in FAR 52.227-19.
  
 Gaussian, Inc.
 340 Quinnipiac St., Bldg. 40, Wallingford CT 06492
  
  
 ---------------------------------------------------------------
 Warning -- This program may not be used in any manner that
 competes with the business of Gaussian, Inc. or will provide
 assistance to any competitor of Gaussian, Inc.  The licensee
 of this program is prohibited from giving any competitor of
 Gaussian, Inc. access to this program.  By using this program,
 the user acknowledges that Gaussian, Inc. is engaged in the
 business of creating and licensing software in the field of
 computational chemistry and represents and warrants to the
 licensee that it is not a competitor of Gaussian, Inc. and that
 it will not use this program in any manner prohibited above.
 ---------------------------------------------------------------
  

 Cite this work as:
 Gaussian 09, Revision D.01,
 M. J. Frisch, G. W. Trucks, H. B. Schlegel, G. E. Scuseria, 
 M. A. Robb, J. R. Cheeseman, G. Scalmani, V. Barone, B. Mennucci, 
 G. A. Petersson, H. Nakatsuji, M. Caricato, X. Li, H. P. Hratchian, 
 A. F. Izmaylov, J. Bloino, G. Zheng, J. L. Sonnenberg, M. Hada, 
 M. Ehara, K. Toyota, R. Fukuda, J. Hasegawa, M. Ishida, T. Nakajima, 
 Y. Honda, O. Kitao, H. Nakai, T. Vreven, J. A. Montgomery, Jr., 
 J. E. Peralta, F. Ogliaro, M. Bearpark, J. J. Heyd, E. Brothers, 
 K. N. Kudin, V. N. Staroverov, T. Keith, R. Kobayashi, J. Normand, 
 K. Raghavachari, A. Rendell, J. C. Burant, S. S. Iyengar, J. Tomasi, 
 M. Cossi, N. Rega, J. M. Millam, M. Klene, J. E. Knox, J. B. Cross, 
 V. Bakken, C. Adamo, J. Jaramillo, R. Gomperts, R. E. Stratmann, 
 O. Yazyev, A. J. Austin, R. Cammi, C. Pomelli, J. W. Ochterski, 
 R. L. Martin, K. Morokuma, V. G. Zakrzewski, G. A. Voth, 
 P. Salvador, J. J. Dannenberg, S. Dapprich, A. D. Daniels, 
 O. Farkas, J. B. Foresman, J. V. Ortiz, J. Cioslowski, 
 and D. J. Fox, Gaussian, Inc., Wallingford CT, 2013.
 
 ******************************************
 Gaussian 09:  ES64L-G09RevD.01 24-Apr-2013
                23-Apr-2024 
 ******************************************
 %nprocshared=20
 Will use up to   20 processors via shared memory.
 %mem=4GB
 %chk=79.chk
 ----------------------------------------------------------------------
 # opt freq=noraman b3lyp/6-311+g(d,p) pop=(npa,hirshfeld,chelpg,mbs) g
 eom=connectivity
 ----------------------------------------------------------------------
 1/14=-1,18=20,19=15,26=3,38=1,57=2/1,3;
 2/9=110,12=2,17=6,18=5,40=1/2;
 3/5=4,6=6,7=111,11=2,16=1,25=1,30=1,71=1,74=-5/1,2,3;
 4//1;
 5/5=2,38=5/2;
 6/7=2,8=2,9=2,10=2,15=8,20=3,27=100,28=1,40=-1,79=1/1,2,7;
 7//1,2,3,16;
 1/14=-1,18=20,19=15,26=3/3(2);
 2/9=110/2;
 99//99;
 2/9=110/2;
 3/5=4,6=6,7=111,11=2,16=1,25=1,30=1,71=1,74=-5/1,2,3;
 4/5=5,16=3,69=1/1;
 5/5=2,38=5/2;
 7//1,2,3,16;
 1/14=-1,18=20,19=15,26=3/3(-5);
 2/9=110/2;
 6/7=2,8=2,9=2,10=2,15=8,19=2,20=3,27=100,28=1,40=-1,79=1/1,2,7;
 99/9=1/99;
 -------------------
 Title Card Required
 -------------------
 Symbolic Z-matrix:
 Charge =  0 Multiplicity = 1
 C                     0.15407  -1.92855   1.20819 
 C                     1.21495  -2.83464   1.20819 
 C                     2.52974  -2.36927   1.20819 
 C                     2.7841   -0.99722   1.207 
 C                     1.72342  -0.09142   1.20652 
 C                     0.40829  -0.55709   1.20751 
 H                    -0.88246  -2.29566   1.20864 
 H                     1.01419  -3.91581   1.20951 
 H                     3.82084  -0.63053   1.20694 
 H                     1.92356   0.98998   1.20556 
 N                     3.6476   -3.32388   1.20904 
 H                     3.59458  -3.89855   2.02571 
 C                     3.57078  -4.16945   0.00904 
 O                     3.43226  -3.85666  -1.17271 
 O                     3.67335  -5.49033   0.30259 
 C                     3.5943   -6.27818  -0.88818 
 C                     2.22852  -6.05285  -1.56306 
 H                     1.51315  -5.74886  -0.82772 
 H                     2.32029  -5.29028  -2.30802 
 H                     1.90318  -6.96285  -2.02236 
 C                     4.71914  -5.86247  -1.85436 
 H                     5.46789  -5.31868  -1.31718 
 H                     5.15658  -6.73656  -2.28968 
 H                     4.31449  -5.24331  -2.62755 
 C                     3.75011  -7.7677   -0.52947 
 H                     3.7059   -8.35604  -1.4221 
 H                     4.69274  -7.92169  -0.04713 
 H                     2.95997  -8.06028   0.13005 
 Cl                   -0.92983   0.58616   1.20722 
 

 GradGradGradGradGradGradGradGradGradGradGradGradGradGradGradGradGradGrad
 Berny optimization.
 Initialization pass.
                           ----------------------------
                           !    Initial Parameters    !
                           ! (Angstroms and Degrees)  !
 --------------------------                            --------------------------
 ! Name  Definition              Value          Derivative Info.                !
 --------------------------------------------------------------------------------
 ! R1    R(1,2)                  1.3952         estimate D2E/DX2                !
 ! R2    R(1,6)                  1.3948         estimate D2E/DX2                !
 ! R3    R(1,7)                  1.0996         estimate D2E/DX2                !
 ! R4    R(2,3)                  1.3947         estimate D2E/DX2                !
 ! R5    R(2,8)                  1.0997         estimate D2E/DX2                !
 ! R6    R(3,4)                  1.3954         estimate D2E/DX2                !
 ! R7    R(3,11)                 1.47           estimate D2E/DX2                !
 ! R8    R(4,5)                  1.3948         estimate D2E/DX2                !
 ! R9    R(4,9)                  1.0997         estimate D2E/DX2                !
 ! R10   R(5,6)                  1.3951         estimate D2E/DX2                !
 ! R11   R(5,10)                 1.0998         estimate D2E/DX2                !
 ! R12   R(6,29)                 1.76           estimate D2E/DX2                !
 ! R13   R(11,12)                1.0            estimate D2E/DX2                !
 ! R14   R(11,13)                1.47           estimate D2E/DX2                !
 ! R15   R(13,14)                1.2303         estimate D2E/DX2                !
 ! R16   R(13,15)                1.357          estimate D2E/DX2                !
 ! R17   R(15,16)                1.43           estimate D2E/DX2                !
 ! R18   R(16,17)                1.54           estimate D2E/DX2                !
 ! R19   R(16,21)                1.54           estimate D2E/DX2                !
 ! R20   R(16,25)                1.54           estimate D2E/DX2                !
 ! R21   R(17,18)                1.07           estimate D2E/DX2                !
 ! R22   R(17,19)                1.07           estimate D2E/DX2                !
 ! R23   R(17,20)                1.07           estimate D2E/DX2                !
 ! R24   R(21,22)                1.07           estimate D2E/DX2                !
 ! R25   R(21,23)                1.07           estimate D2E/DX2                !
 ! R26   R(21,24)                1.07           estimate D2E/DX2                !
 ! R27   R(25,26)                1.07           estimate D2E/DX2                !
 ! R28   R(25,27)                1.07           estimate D2E/DX2                !
 ! R29   R(25,28)                1.07           estimate D2E/DX2                !
 ! A1    A(2,1,6)              119.9985         estimate D2E/DX2                !
 ! A2    A(2,1,7)              119.9972         estimate D2E/DX2                !
 ! A3    A(6,1,7)              120.0043         estimate D2E/DX2                !
 ! A4    A(1,2,3)              120.0086         estimate D2E/DX2                !
 ! A5    A(1,2,8)              119.9808         estimate D2E/DX2                !
 ! A6    A(3,2,8)              120.0106         estimate D2E/DX2                !
 ! A7    A(2,3,4)              119.9942         estimate D2E/DX2                !
 ! A8    A(2,3,11)             120.0128         estimate D2E/DX2                !
 ! A9    A(4,3,11)             119.993          estimate D2E/DX2                !
 ! A10   A(3,4,5)              119.994          estimate D2E/DX2                !
 ! A11   A(3,4,9)              119.9811         estimate D2E/DX2                !
 ! A12   A(5,4,9)              120.0249         estimate D2E/DX2                !
 ! A13   A(4,5,6)              120.0047         estimate D2E/DX2                !
 ! A14   A(4,5,10)             120.0113         estimate D2E/DX2                !
 ! A15   A(6,5,10)             119.984          estimate D2E/DX2                !
 ! A16   A(1,6,5)              120.0            estimate D2E/DX2                !
 ! A17   A(1,6,29)             120.008          estimate D2E/DX2                !
 ! A18   A(5,6,29)             119.992          estimate D2E/DX2                !
 ! A19   A(3,11,12)            109.4712         estimate D2E/DX2                !
 ! A20   A(3,11,13)            109.4712         estimate D2E/DX2                !
 ! A21   A(12,11,13)           109.4713         estimate D2E/DX2                !
 ! A22   A(11,13,14)           130.0733         estimate D2E/DX2                !
 ! A23   A(11,13,15)           112.2947         estimate D2E/DX2                !
 ! A24   A(14,13,15)           117.632          estimate D2E/DX2                !
 ! A25   A(13,15,16)           110.6079         estimate D2E/DX2                !
 ! A26   A(15,16,17)           109.4712         estimate D2E/DX2                !
 ! A27   A(15,16,21)           109.4712         estimate D2E/DX2                !
 ! A28   A(15,16,25)           109.4712         estimate D2E/DX2                !
 ! A29   A(17,16,21)           109.4712         estimate D2E/DX2                !
 ! A30   A(17,16,25)           109.4712         estimate D2E/DX2                !
 ! A31   A(21,16,25)           109.4713         estimate D2E/DX2                !
 ! A32   A(16,17,18)           109.4712         estimate D2E/DX2                !
 ! A33   A(16,17,19)           109.4712         estimate D2E/DX2                !
 ! A34   A(16,17,20)           109.4712         estimate D2E/DX2                !
 ! A35   A(18,17,19)           109.4713         estimate D2E/DX2                !
 ! A36   A(18,17,20)           109.4712         estimate D2E/DX2                !
 ! A37   A(19,17,20)           109.4712         estimate D2E/DX2                !
 ! A38   A(16,21,22)           109.4712         estimate D2E/DX2                !
 ! A39   A(16,21,23)           109.4712         estimate D2E/DX2                !
 ! A40   A(16,21,24)           109.4712         estimate D2E/DX2                !
 ! A41   A(22,21,23)           109.4713         estimate D2E/DX2                !
 ! A42   A(22,21,24)           109.4712         estimate D2E/DX2                !
 ! A43   A(23,21,24)           109.4712         estimate D2E/DX2                !
 ! A44   A(16,25,26)           109.4712         estimate D2E/DX2                !
 ! A45   A(16,25,27)           109.4712         estimate D2E/DX2                !
 ! A46   A(16,25,28)           109.4712         estimate D2E/DX2                !
 ! A47   A(26,25,27)           109.4713         estimate D2E/DX2                !
 ! A48   A(26,25,28)           109.4712         estimate D2E/DX2                !
 ! A49   A(27,25,28)           109.4712         estimate D2E/DX2                !
 ! D1    D(6,1,2,3)              0.0323         estimate D2E/DX2                !
 ! D2    D(6,1,2,8)            179.9532         estimate D2E/DX2                !
 ! D3    D(7,1,2,3)           -179.9729         estimate D2E/DX2                !
 ! D4    D(7,1,2,8)             -0.052          estimate D2E/DX2                !
 ! D5    D(2,1,6,5)              0.0149         estimate D2E/DX2                !
 ! D6    D(2,1,6,29)           179.9892         estimate D2E/DX2                !
 ! D7    D(7,1,6,5)           -179.9798         estimate D2E/DX2                !
 ! D8    D(7,1,6,29)            -0.0056         estimate D2E/DX2                !
 ! D9    D(1,2,3,4)             -0.0568         estimate D2E/DX2                !
 ! D10   D(1,2,3,11)           179.9619         estimate D2E/DX2                !
 ! D11   D(8,2,3,4)           -179.9777         estimate D2E/DX2                !
 ! D12   D(8,2,3,11)             0.041          estimate D2E/DX2                !
 ! D13   D(2,3,4,5)              0.0341         estimate D2E/DX2                !
 ! D14   D(2,3,4,9)           -179.9964         estimate D2E/DX2                !
 ! D15   D(11,3,4,5)          -179.9846         estimate D2E/DX2                !
 ! D16   D(11,3,4,9)            -0.0151         estimate D2E/DX2                !
 ! D17   D(2,3,11,12)          -59.9782         estimate D2E/DX2                !
 ! D18   D(2,3,11,13)           60.0218         estimate D2E/DX2                !
 ! D19   D(4,3,11,12)          120.0405         estimate D2E/DX2                !
 ! D20   D(4,3,11,13)         -119.9595         estimate D2E/DX2                !
 ! D21   D(3,4,5,6)              0.0131         estimate D2E/DX2                !
 ! D22   D(3,4,5,10)          -179.9995         estimate D2E/DX2                !
 ! D23   D(9,4,5,6)           -179.9563         estimate D2E/DX2                !
 ! D24   D(9,4,5,10)             0.0311         estimate D2E/DX2                !
 ! D25   D(4,5,6,1)             -0.0376         estimate D2E/DX2                !
 ! D26   D(4,5,6,29)           179.9881         estimate D2E/DX2                !
 ! D27   D(10,5,6,1)           179.975          estimate D2E/DX2                !
 ! D28   D(10,5,6,29)            0.0007         estimate D2E/DX2                !
 ! D29   D(3,11,13,14)          49.7789         estimate D2E/DX2                !
 ! D30   D(3,11,13,15)        -130.218          estimate D2E/DX2                !
 ! D31   D(12,11,13,14)        169.7789         estimate D2E/DX2                !
 ! D32   D(12,11,13,15)        -10.218          estimate D2E/DX2                !
 ! D33   D(11,13,15,16)        179.9996         estimate D2E/DX2                !
 ! D34   D(14,13,15,16)          0.0023         estimate D2E/DX2                !
 ! D35   D(13,15,16,17)        -61.4624         estimate D2E/DX2                !
 ! D36   D(13,15,16,21)         58.5376         estimate D2E/DX2                !
 ! D37   D(13,15,16,25)        178.5376         estimate D2E/DX2                !
 ! D38   D(15,16,17,18)        -25.4026         estimate D2E/DX2                !
 ! D39   D(15,16,17,19)         94.5974         estimate D2E/DX2                !
 ! D40   D(15,16,17,20)       -145.4026         estimate D2E/DX2                !
 ! D41   D(21,16,17,18)       -145.4026         estimate D2E/DX2                !
 ! D42   D(21,16,17,19)        -25.4026         estimate D2E/DX2                !
 ! D43   D(21,16,17,20)         94.5974         estimate D2E/DX2                !
 ! D44   D(25,16,17,18)         94.5973         estimate D2E/DX2                !
 ! D45   D(25,16,17,19)       -145.4026         estimate D2E/DX2                !
 ! D46   D(25,16,17,20)        -25.4026         estimate D2E/DX2                !
 ! D47   D(15,16,21,22)         17.4794         estimate D2E/DX2                !
 ! D48   D(15,16,21,23)        137.4794         estimate D2E/DX2                !
 ! D49   D(15,16,21,24)       -102.5206         estimate D2E/DX2                !
 ! D50   D(17,16,21,22)        137.4794         estimate D2E/DX2                !
 ! D51   D(17,16,21,23)       -102.5206         estimate D2E/DX2                !
 ! D52   D(17,16,21,24)         17.4794         estimate D2E/DX2                !
 ! D53   D(25,16,21,22)       -102.5206         estimate D2E/DX2                !
 ! D54   D(25,16,21,23)         17.4794         estimate D2E/DX2                !
 ! D55   D(25,16,21,24)        137.4794         estimate D2E/DX2                !
 ! D56   D(15,16,25,26)       -179.1445         estimate D2E/DX2                !
 ! D57   D(15,16,25,27)        -59.1444         estimate D2E/DX2                !
 ! D58   D(15,16,25,28)         60.8556         estimate D2E/DX2                !
 ! D59   D(17,16,25,26)         60.8555         estimate D2E/DX2                !
 ! D60   D(17,16,25,27)       -179.1444         estimate D2E/DX2                !
 ! D61   D(17,16,25,28)        -59.1444         estimate D2E/DX2                !
 ! D62   D(21,16,25,26)        -59.1445         estimate D2E/DX2                !
 ! D63   D(21,16,25,27)         60.8555         estimate D2E/DX2                !
 ! D64   D(21,16,25,28)       -179.1445         estimate D2E/DX2                !
 --------------------------------------------------------------------------------
 Trust Radius=3.00D-01 FncErr=1.00D-07 GrdErr=1.00D-06
 Number of steps in this run=    152 maximum allowed number of steps=    174.
 GradGradGradGradGradGradGradGradGradGradGradGradGradGradGradGradGradGrad

                          Input orientation:                          
 ---------------------------------------------------------------------
 Center     Atomic      Atomic             Coordinates (Angstroms)
 Number     Number       Type             X           Y           Z
 ---------------------------------------------------------------------
      1          6           0        0.154065   -1.928554    1.208195
      2          6           0        1.214953   -2.834638    1.208195
      3          6           0        2.529737   -2.369271    1.208195
      4          6           0        2.784100   -0.997224    1.206996
      5          6           0        1.723417   -0.091417    1.206517
      6          6           0        0.408290   -0.557088    1.207513
      7          1           0       -0.882455   -2.295661    1.208645
      8          1           0        1.014195   -3.915811    1.209510
      9          1           0        3.820843   -0.630535    1.206937
     10          1           0        1.923558    0.989979    1.205564
     11          7           0        3.647603   -3.323878    1.209042
     12          1           0        3.594577   -3.898547    2.025708
     13          6           0        3.570782   -4.169453    0.009041
     14          8           0        3.432260   -3.856657   -1.172708
     15          8           0        3.673352   -5.490330    0.302595
     16          6           0        3.594303   -6.278185   -0.888177
     17          6           0        2.228525   -6.052848   -1.563064
     18          1           0        1.513152   -5.748857   -0.827720
     19          1           0        2.320291   -5.290277   -2.308023
     20          1           0        1.903181   -6.962845   -2.022365
     21          6           0        4.719140   -5.862466   -1.854365
     22          1           0        5.467891   -5.318677   -1.317182
     23          1           0        5.156580   -6.736563   -2.289680
     24          1           0        4.314490   -5.243313   -2.627546
     25          6           0        3.750115   -7.767699   -0.529470
     26          1           0        3.705895   -8.356045   -1.422103
     27          1           0        4.692735   -7.921693   -0.047130
     28          1           0        2.959973   -8.060281    0.130053
     29         17           0       -0.929835    0.586163    1.207224
 ---------------------------------------------------------------------
                    Distance matrix (angstroms):
                    1          2          3          4          5
     1  C    0.000000
     2  C    1.395160   0.000000
     3  C    2.416205   1.394712   0.000000
     4  C    2.790065   2.416260   1.395427   0.000000
     5  C    2.416183   2.789946   2.416356   1.394825   0.000000
     6  C    1.394829   2.416183   2.790080   2.416236   1.395138
     7  H    1.099610   2.165553   3.412986   3.889675   3.413102
     8  H    2.165414   1.099655   2.165330   3.413316   3.889601
     9  H    3.889745   3.413024   2.165678   1.099680   2.165606
    10  H    3.413055   3.889707   3.413506   2.165528   1.099761
    11  N    3.761879   2.481359   1.470000   2.481726   3.761822
    12  H    4.048003   2.731820   2.034920   3.121673   4.320482
    13  C    4.258351   2.961356   2.400500   3.480949   4.634338
    14  O    4.486964   3.410230   2.948824   3.776170   4.770523
    15  O    5.088393   3.730488   3.445138   4.668695   5.810989
    16  C    5.928684   4.681249   4.561544   5.738878   6.794414
    17  C    5.384520   4.366243   4.619452   5.791479   6.592752
    18  H    4.537266   3.567428   4.074309   5.322912   6.015726
    19  H    5.325176   4.428964   4.576016   5.567834   6.303681
    20  H    6.232175   5.286990   5.650664   6.840572   7.594374
    21  C    6.759796   5.552147   5.135676   6.065219   7.186679
    22  H    6.790229   5.534931   4.869217   5.678835   6.907561
    23  H    7.770279   6.557177   6.181316   7.127091   8.256390
    24  H    6.558176   5.488328   5.114525   5.922421   6.925007
    25  C    7.074367   5.812196   5.801019   7.056049   8.126898
    26  H    7.800423   6.603726   6.644040   7.868552   8.896288
    27  H    7.621882   6.288795   6.089646   7.291364   8.467686
    28  H    6.828879   5.613807   5.808191   7.146853   8.135763
    29  Cl   2.738365   4.037573   4.550080   4.037379   2.738404
                    6          7          8          9         10
     6  C    0.000000
     7  H    2.165331   0.000000
     8  H    3.412938   2.494427   0.000000
     9  H    3.413344   4.989355   4.320917   0.000000
    10  H    2.165516   4.320781   4.989362   2.495147   0.000000
    11  N    4.260080   4.645283   2.699115   2.698910   4.645612
    12  H    4.689054   4.825003   2.706446   3.376609   5.230931
    13  C    4.948421   4.978098   2.835771   3.744520   5.546599
    14  O    5.069221   5.169557   3.394923   4.027601   5.605555
    15  O    5.984679   5.637572   3.220671   4.945422   6.772853
    16  C    6.875576   6.348111   4.078977   6.027999   7.746054
    17  C    6.418156   5.610438   3.705224   6.293637   7.573620
    18  H    5.684836   4.670147   2.785555   5.971808   7.050857
    19  H    6.198211   5.620699   3.996008   6.026590   7.207239
    20  H    7.328065   6.323116   4.529870   7.362334   8.582969
    21  C    7.490364   7.313138   5.186850   6.127936   8.008398
    22  H    7.392319   7.472973   5.309201   5.573385   7.663269
    23  H    8.541811   8.272233   6.112310   7.161990   9.075716
    24  H    7.206024   7.100229   5.232323   6.018693   7.698260
    25  C    8.134975   7.377326   5.034516   7.345694   9.112825
    26  H    8.866386   8.043758   5.821195   8.161407   9.870639
    27  H    8.612085   8.019473   5.581925   7.449420   9.415704
    28  H    7.998119   7.011309   4.704031   7.556580   9.172682
    29  Cl   1.760000   2.882214   4.903777   4.904008   2.881825
                   11         12         13         14         15
    11  N    0.000000
    12  H    1.000000   0.000000
    13  C    1.470000   2.034920   0.000000
    14  O    2.450094   3.202806   1.230269   0.000000
    15  O    2.348579   2.347147   1.356986   2.214392   0.000000
    16  C    3.623409   3.762101   2.291790   2.443565   1.430000
    17  C    4.140728   4.402999   2.796488   2.534682   2.425826
    18  H    3.819005   3.987233   2.725532   2.717060   2.451716
    19  H    4.242432   4.726727   2.861601   2.140252   2.947222
    20  H    5.169823   5.351414   3.835432   3.564885   3.272192
    21  C    4.120325   4.491835   2.767183   2.478706   2.425826
    22  H    3.697902   4.086684   2.584300   2.510412   2.423533
    23  H    5.115123   5.395995   3.793274   3.537621   3.236194
    24  H    4.341471   4.896881   2.942425   2.194925   3.009618
    25  C    4.772890   4.639339   3.642736   3.976309   2.425826
    26  H    5.678822   5.636407   4.426509   4.514594   3.344841
    27  H    4.879566   4.657071   3.916789   4.402299   2.659506
    28  H    4.906176   4.616953   3.940339   4.426138   2.672700
    29  Cl   6.020080   6.422838   6.656356   6.665629   7.676683
                   16         17         18         19         20
    16  C    0.000000
    17  C    1.540000   0.000000
    18  H    2.148263   1.070000   0.000000
    19  H    2.148263   1.070000   1.747303   0.000000
    20  H    2.148263   1.070000   1.747303   1.747303   0.000000
    21  C    1.540000   2.514809   3.368274   2.507525   3.027983
    22  H    2.148263   3.330610   4.008066   3.299994   3.988449
    23  H    2.148263   3.093372   4.048143   3.183806   3.272196
    24  H    2.148263   2.477846   3.367855   2.020181   3.022821
    25  C    1.540000   2.514809   3.027982   3.368274   2.507526
    26  H    2.148263   2.739929   3.458156   3.479035   2.356076
    27  H    2.148263   3.444267   3.929413   4.202913   3.550007
    28  H    2.148263   2.726069   2.890207   3.745175   2.637058
    29  Cl   8.483973   7.856602   7.088135   7.579764   8.685836
                   21         22         23         24         25
    21  C    0.000000
    22  H    1.070000   0.000000
    23  H    1.070000   1.747303   0.000000
    24  H    1.070000   1.747303   1.747303   0.000000
    25  C    2.514810   3.093372   2.477847   3.330610   0.000000
    26  H    2.726069   3.513010   2.340918   3.393019   1.070000
    27  H    2.739929   2.998264   2.578510   3.738360   1.070000
    28  H    3.444267   3.987547   3.525964   4.168259   1.070000
    29  Cl   9.103244   9.064804  10.143723   8.728757   9.731652
                   26         27         28         29
    26  H    0.000000
    27  H    1.747303   0.000000
    28  H    1.747303   1.747303   0.000000
    29  Cl  10.409920  10.274741   9.542112   0.000000
 Stoichiometry    C11H14ClNO2
 Framework group  C1[X(C11H14ClNO2)]
 Deg. of freedom    81
 Full point group                 C1      NOp   1
 Largest Abelian subgroup         C1      NOp   1
 Largest concise Abelian subgroup C1      NOp   1
                         Standard orientation:                         
 ---------------------------------------------------------------------
 Center     Atomic      Atomic             Coordinates (Angstroms)
 Number     Number       Type             X           Y           Z
 ---------------------------------------------------------------------
      1          6           0        2.388925   -0.995729   -0.551220
      2          6           0        1.126152   -0.459221   -0.804268
      3          6           0        0.865510    0.879285   -0.511542
      4          6           0        1.867551    1.681633    0.035604
      5          6           0        3.129856    1.145060    0.289006
      6          6           0        3.390708   -0.193616   -0.004783
      7          1           0        2.594346   -2.050934   -0.782495
      8          1           0        0.336809   -1.091653   -1.235789
      9          1           0        1.661793    2.736954    0.266380
     10          1           0        3.919790    1.777144    0.720224
     11          7           0       -0.464719    1.444887   -0.778908
     12          1           0       -0.670447    1.366268   -1.754354
     13          6           0       -1.474625    0.709383   -0.004296
     14          8           0       -1.497716    0.416311    1.190332
     15          8           0       -2.523136    0.314109   -0.769668
     16          6           0       -3.481836   -0.396464    0.018292
     17          6           0       -2.827606   -1.660771    0.605752
     18          1           0       -2.011859   -1.962645   -0.017409
     19          1           0       -2.465411   -1.450301    1.590341
     20          1           0       -3.550985   -2.447815    0.652492
     21          6           0       -3.974651    0.506351    1.164442
     22          1           0       -3.736104    1.525709    0.943297
     23          1           0       -5.034424    0.402778    1.269577
     24          1           0       -3.495835    0.217846    2.076802
     25          6           0       -4.675696   -0.800202   -0.866746
     26          1           0       -5.399867   -1.318861   -0.273896
     27          1           0       -5.121103    0.077313   -1.286841
     28          1           0       -4.335620   -1.439580   -1.654429
     29         17           0        4.983707   -0.870238    0.314806
 ---------------------------------------------------------------------
 Rotational constants (GHZ):      1.5257239      0.2106316      0.2012028
 Standard basis: 6-311+G(d,p) (5D, 7F)
 There are   437 symmetry adapted cartesian basis functions of A   symmetry.
 There are   422 symmetry adapted basis functions of A   symmetry.
   422 basis functions,   669 primitive gaussians,   437 cartesian basis functions
    60 alpha electrons       60 beta electrons
       nuclear repulsion energy      1078.1758526144 Hartrees.
 NAtoms=   29 NActive=   29 NUniq=   29 SFac= 1.00D+00 NAtFMM=   60 NAOKFM=F Big=F
 Integral buffers will be    131072 words long.
 Raffenetti 2 integral format.
 Two-electron integral symmetry is turned on.
 One-electron integrals computed using PRISM.
 NBasis=   422 RedAO= T EigKep=  1.73D-06  NBF=   422
 NBsUse=   422 1.00D-06 EigRej= -1.00D+00 NBFU=   422
 ExpMin= 4.38D-02 ExpMax= 1.06D+05 ExpMxC= 3.62D+03 IAcc=2 IRadAn=         4 AccDes= 0.00D+00
 Harris functional with IExCor=  402 and IRadAn=       4 diagonalized for initial guess.
 HarFok:  IExCor=  402 AccDes= 0.00D+00 IRadAn=         4 IDoV= 1 UseB2=F ITyADJ=14
 ICtDFT=  3500011 ScaDFX=  1.000000  1.000000  1.000000  1.000000
 FoFCou: FMM=F IPFlag=           0 FMFlag=      100000 FMFlg1=           0
         NFxFlg=           0 DoJE=T BraDBF=F KetDBF=T FulRan=T
         wScrn=  0.000000 ICntrl=     500 IOpCl=  0 I1Cent=   200000004 NGrid=           0
         NMat0=    1 NMatS0=      1 NMatT0=    0 NMatD0=    1 NMtDS0=    0 NMtDT0=    0
 Petite list used in FoFCou.
 Requested convergence on RMS density matrix=1.00D-08 within 128 cycles.
 Requested convergence on MAX density matrix=1.00D-06.
 Requested convergence on             energy=1.00D-06.
 No special actions if energy rises.
 SCF Done:  E(RB3LYP) =  -1093.19009518     A.U. after   15 cycles
            NFock= 15  Conv=0.59D-08     -V/T= 2.0033

 **********************************************************************

            Population analysis using the SCF density.

 **********************************************************************

 Orbital symmetries:
       Occupied  (A) (A) (A) (A) (A) (A) (A) (A) (A) (A) (A) (A)
                 (A) (A) (A) (A) (A) (A) (A) (A) (A) (A) (A) (A)
                 (A) (A) (A) (A) (A) (A) (A) (A) (A) (A) (A) (A)
                 (A) (A) (A) (A) (A) (A) (A) (A) (A) (A) (A) (A)
                 (A) (A) (A) (A) (A) (A) (A) (A) (A) (A) (A) (A)
       Virtual   (A) (A) (A) (A) (A) (A) (A) (A) (A) (A) (A) (A)
                 (A) (A) (A) (A) (A) (A) (A) (A) (A) (A) (A) (A)
                 (A) (A) (A) (A) (A) (A) (A) (A) (A) (A) (A) (A)
                 (A) (A) (A) (A) (A) (A) (A) (A) (A) (A) (A) (A)
                 (A) (A) (A) (A) (A) (A) (A) (A) (A) (A) (A) (A)
                 (A) (A) (A) (A) (A) (A) (A) (A) (A) (A) (A) (A)
                 (A) (A) (A) (A) (A) (A) (A) (A) (A) (A) (A) (A)
                 (A) (A) (A) (A) (A) (A) (A) (A) (A) (A) (A) (A)
                 (A) (A) (A) (A) (A) (A) (A) (A) (A) (A) (A) (A)
                 (A) (A) (A) (A) (A) (A) (A) (A) (A) (A) (A) (A)
                 (A) (A) (A) (A) (A) (A) (A) (A) (A) (A) (A) (A)
                 (A) (A) (A) (A) (A) (A) (A) (A) (A) (A) (A) (A)
                 (A) (A) (A) (A) (A) (A) (A) (A) (A) (A) (A) (A)
                 (A) (A) (A) (A) (A) (A) (A) (A) (A) (A) (A) (A)
                 (A) (A) (A) (A) (A) (A) (A) (A) (A) (A) (A) (A)
                 (A) (A) (A) (A) (A) (A) (A) (A) (A) (A) (A) (A)
                 (A) (A) (A) (A) (A) (A) (A) (A) (A) (A) (A) (A)
                 (A) (A) (A) (A) (A) (A) (A) (A) (A) (A) (A) (A)
                 (A) (A) (A) (A) (A) (A) (A) (A) (A) (A) (A) (A)
                 (A) (A) (A) (A) (A) (A) (A) (A) (A) (A) (A) (A)
                 (A) (A) (A) (A) (A) (A) (A) (A) (A) (A) (A) (A)
                 (A) (A) (A) (A) (A) (A) (A) (A) (A) (A) (A) (A)
                 (A) (A) (A) (A) (A) (A) (A) (A) (A) (A) (A) (A)
                 (A) (A) (A) (A) (A) (A) (A) (A) (A) (A) (A) (A)
                 (A) (A) (A) (A) (A) (A) (A) (A) (A) (A) (A) (A)
                 (A) (A) (A) (A) (A) (A) (A) (A) (A) (A) (A) (A)
                 (A) (A) (A) (A) (A) (A) (A) (A) (A) (A) (A) (A)
                 (A) (A) (A) (A) (A) (A) (A) (A) (A) (A) (A) (A)
                 (A) (A) (A) (A) (A) (A) (A) (A) (A) (A) (A) (A)
                 (A) (A) (A) (A) (A) (A) (A) (A) (A) (A) (A) (A)
                 (A) (A)
 The electronic state is 1-A.
 Alpha  occ. eigenvalues -- -101.56275 -19.17643 -19.11522 -14.35868 -10.33995
 Alpha  occ. eigenvalues --  -10.25296 -10.24162 -10.23578 -10.20521 -10.20420
 Alpha  occ. eigenvalues --  -10.20371 -10.20106 -10.16323 -10.15039 -10.14790
 Alpha  occ. eigenvalues --   -9.47717  -7.24183  -7.23198  -7.23165  -1.13005
 Alpha  occ. eigenvalues --   -1.02294  -0.94859  -0.90140  -0.84566  -0.81285
 Alpha  occ. eigenvalues --   -0.77601  -0.74212  -0.70491  -0.69989  -0.65297
 Alpha  occ. eigenvalues --   -0.63929  -0.60823  -0.57028  -0.54232  -0.52445
 Alpha  occ. eigenvalues --   -0.50315  -0.49224  -0.48273  -0.47814  -0.46817
 Alpha  occ. eigenvalues --   -0.45581  -0.44940  -0.44525  -0.41974  -0.41244
 Alpha  occ. eigenvalues --   -0.40854  -0.39618  -0.39297  -0.38012  -0.37523
 Alpha  occ. eigenvalues --   -0.37162  -0.35081  -0.34504  -0.33828  -0.32560
 Alpha  occ. eigenvalues --   -0.30594  -0.29793  -0.28805  -0.28168  -0.26243
 Alpha virt. eigenvalues --   -0.04167  -0.03915  -0.00919  -0.00307   0.00597
 Alpha virt. eigenvalues --    0.01008   0.01409   0.01749   0.03228   0.03290
 Alpha virt. eigenvalues --    0.03739   0.04760   0.04908   0.05396   0.05752
 Alpha virt. eigenvalues --    0.05978   0.06433   0.06730   0.07471   0.07621
 Alpha virt. eigenvalues --    0.08187   0.08725   0.08914   0.09569   0.10513
 Alpha virt. eigenvalues --    0.10577   0.10904   0.11223   0.11579   0.12334
 Alpha virt. eigenvalues --    0.12712   0.13060   0.13632   0.14107   0.14249
 Alpha virt. eigenvalues --    0.14841   0.15088   0.15632   0.16137   0.16448
 Alpha virt. eigenvalues --    0.16949   0.17387   0.17506   0.18213   0.18706
 Alpha virt. eigenvalues --    0.18843   0.19146   0.20061   0.20083   0.20121
 Alpha virt. eigenvalues --    0.20543   0.20941   0.21482   0.21668   0.21884
 Alpha virt. eigenvalues --    0.22240   0.23054   0.23252   0.23798   0.23923
 Alpha virt. eigenvalues --    0.24642   0.24835   0.25182   0.25560   0.26436
 Alpha virt. eigenvalues --    0.26540   0.26742   0.27533   0.28088   0.28761
 Alpha virt. eigenvalues --    0.28935   0.29341   0.29796   0.30583   0.30757
 Alpha virt. eigenvalues --    0.31631   0.32161   0.32697   0.33199   0.33988
 Alpha virt. eigenvalues --    0.34651   0.34801   0.35562   0.36363   0.36928
 Alpha virt. eigenvalues --    0.38574   0.39910   0.40771   0.42585   0.43808
 Alpha virt. eigenvalues --    0.44199   0.44344   0.45621   0.46131   0.48018
 Alpha virt. eigenvalues --    0.48405   0.48797   0.49341   0.50437   0.50727
 Alpha virt. eigenvalues --    0.50950   0.52024   0.52689   0.52926   0.54683
 Alpha virt. eigenvalues --    0.55702   0.57018   0.57669   0.58184   0.58659
 Alpha virt. eigenvalues --    0.59499   0.60175   0.61603   0.62867   0.63581
 Alpha virt. eigenvalues --    0.64246   0.64862   0.65299   0.65675   0.66574
 Alpha virt. eigenvalues --    0.67731   0.67961   0.68578   0.69012   0.70479
 Alpha virt. eigenvalues --    0.70950   0.70983   0.72400   0.72829   0.73636
 Alpha virt. eigenvalues --    0.74316   0.75259   0.76022   0.77817   0.78293
 Alpha virt. eigenvalues --    0.79042   0.80061   0.82290   0.83519   0.83636
 Alpha virt. eigenvalues --    0.84498   0.84871   0.85290   0.85455   0.86204
 Alpha virt. eigenvalues --    0.86591   0.86671   0.88646   0.90323   0.91479
 Alpha virt. eigenvalues --    0.92781   0.93459   0.95043   0.95725   0.95862
 Alpha virt. eigenvalues --    0.99206   0.99307   1.00962   1.01269   1.03673
 Alpha virt. eigenvalues --    1.05559   1.06516   1.07769   1.10261   1.11974
 Alpha virt. eigenvalues --    1.14363   1.14965   1.17463   1.18255   1.19477
 Alpha virt. eigenvalues --    1.22473   1.24570   1.25895   1.26105   1.27829
 Alpha virt. eigenvalues --    1.30403   1.30921   1.32583   1.35774   1.36939
 Alpha virt. eigenvalues --    1.38597   1.40896   1.42354   1.44048   1.44746
 Alpha virt. eigenvalues --    1.46104   1.47759   1.48145   1.49393   1.49889
 Alpha virt. eigenvalues --    1.50919   1.51572   1.54724   1.55113   1.56946
 Alpha virt. eigenvalues --    1.58249   1.59397   1.60070   1.60618   1.61641
 Alpha virt. eigenvalues --    1.63303   1.64094   1.64623   1.65834   1.66513
 Alpha virt. eigenvalues --    1.67207   1.67909   1.68716   1.70969   1.71161
 Alpha virt. eigenvalues --    1.73665   1.74706   1.75107   1.76006   1.77019
 Alpha virt. eigenvalues --    1.79552   1.80190   1.80756   1.82755   1.84498
 Alpha virt. eigenvalues --    1.85795   1.87127   1.88668   1.89770   1.90358
 Alpha virt. eigenvalues --    1.91123   1.92260   1.93207   1.94950   1.95828
 Alpha virt. eigenvalues --    1.97922   1.98546   1.99712   2.02775   2.04081
 Alpha virt. eigenvalues --    2.04916   2.06356   2.06563   2.11517   2.14613
 Alpha virt. eigenvalues --    2.15951   2.16549   2.22469   2.25369   2.26598
 Alpha virt. eigenvalues --    2.27927   2.29597   2.30932   2.33105   2.33591
 Alpha virt. eigenvalues --    2.34531   2.36558   2.37845   2.41497   2.41802
 Alpha virt. eigenvalues --    2.46025   2.48260   2.49374   2.51963   2.53286
 Alpha virt. eigenvalues --    2.54062   2.54933   2.56687   2.57545   2.58258
 Alpha virt. eigenvalues --    2.59318   2.59850   2.60071   2.61424   2.63114
 Alpha virt. eigenvalues --    2.63439   2.65057   2.65278   2.66128   2.69098
 Alpha virt. eigenvalues --    2.70792   2.71348   2.72111   2.72914   2.73024
 Alpha virt. eigenvalues --    2.74383   2.75938   2.77604   2.77826   2.79175
 Alpha virt. eigenvalues --    2.80030   2.83045   2.84875   2.85184   2.87305
 Alpha virt. eigenvalues --    2.90868   2.91356   2.94206   2.94957   2.97485
 Alpha virt. eigenvalues --    2.98733   3.01227   3.04388   3.07192   3.08125
 Alpha virt. eigenvalues --    3.08639   3.11563   3.14127   3.15868   3.18866
 Alpha virt. eigenvalues --    3.21760   3.26083   3.31847   3.32915   3.35289
 Alpha virt. eigenvalues --    3.36695   3.39066   3.45237   3.46358   3.56358
 Alpha virt. eigenvalues --    3.57248   3.62372   3.71083   3.80703   3.82280
 Alpha virt. eigenvalues --    3.83002   3.85831   3.86737   3.87173   3.89962
 Alpha virt. eigenvalues --    3.90962   3.94361   4.10421   4.10913   4.12818
 Alpha virt. eigenvalues --    4.18643   4.23334   4.30995   4.35180   4.75339
 Alpha virt. eigenvalues --    4.82040   4.86265   5.09998   5.14525   5.30273
 Alpha virt. eigenvalues --    5.44441   5.65068   5.88705   9.76941  23.50527
 Alpha virt. eigenvalues --   23.74878  23.79580  23.87799  23.92552  23.99653
 Alpha virt. eigenvalues --   24.01416  24.02762  24.04783  24.06242  24.14462
 Alpha virt. eigenvalues --   25.82540  26.11885  26.59664  35.56449  49.93693
 Alpha virt. eigenvalues --   50.01779 215.75944
          Condensed to atoms (all electrons):
               1          2          3          4          5          6
     1  C   15.285197  -0.183493   0.155726  -2.417917  -4.961566  -1.581018
     2  C   -0.183493   9.729233  -0.528544  -0.582432  -2.213570  -0.645321
     3  C    0.155726  -0.528544  14.139992  -4.759667   1.605208  -3.686625
     4  C   -2.417917  -0.582432  -4.759667  13.953863  -1.083294   0.247973
     5  C   -4.961566  -2.213570   1.605208  -1.083294  15.031757  -1.800040
     6  C   -1.581018  -0.645321  -3.686625   0.247973  -1.800040  13.487170
     7  H    0.226539  -0.018393  -0.006827   0.000807   0.049320   0.094619
     8  H    0.012248   0.427203  -0.046095  -0.054128   0.004286   0.012268
     9  H   -0.019326  -0.005936  -0.001668   0.419740  -0.041803   0.004295
    10  H    0.032081   0.007583  -0.017265  -0.045076   0.296792   0.069898
    11  N    0.026325  -0.379717  -0.494415   0.675022  -0.046533   0.058245
    12  H   -0.030095  -0.020250   0.079229  -0.024461  -0.007806  -0.002055
    13  C    0.148261  -0.232690   0.246660  -0.566065   0.062290  -0.154678
    14  O   -0.028356  -0.027947   0.094961  -0.029452   0.002400   0.006596
    15  O    0.016383   0.022973   0.109075  -0.125909  -0.002752  -0.005124
    16  C   -0.020933   0.045759  -0.398650   0.278400   0.013976   0.011829
    17  C   -0.026865  -0.101377   0.176051   0.008754  -0.007695  -0.001464
    18  H   -0.004961  -0.025627   0.035595   0.002577  -0.000051  -0.004387
    19  H   -0.001610  -0.002876   0.009588  -0.000683  -0.000082  -0.000356
    20  H    0.000343   0.002397  -0.003776  -0.000292   0.000019   0.000174
    21  C    0.021409   0.038121   0.065956  -0.154765   0.000837  -0.006923
    22  H   -0.000493   0.000101  -0.003104   0.000858  -0.000447   0.000110
    23  H    0.000022  -0.000559   0.000639   0.000614   0.000013  -0.000001
    24  H   -0.000104   0.001526  -0.002647  -0.000180  -0.000231   0.000115
    25  C    0.007883   0.028068  -0.028371   0.000277   0.004979  -0.001652
    26  H   -0.000051   0.000084  -0.000254   0.000072   0.000002  -0.000005
    27  H    0.000118   0.000144   0.000261  -0.000159  -0.000010   0.000009
    28  H    0.000094  -0.000252   0.000098  -0.000279   0.000005  -0.000007
    29  Cl   0.183110   0.274383  -0.194801   0.356618  -0.128004  -1.057606
               7          8          9         10         11         12
     1  C    0.226539   0.012248  -0.019326   0.032081   0.026325  -0.030095
     2  C   -0.018393   0.427203  -0.005936   0.007583  -0.379717  -0.020250
     3  C   -0.006827  -0.046095  -0.001668  -0.017265  -0.494415   0.079229
     4  C    0.000807  -0.054128   0.419740  -0.045076   0.675022  -0.024461
     5  C    0.049320   0.004286  -0.041803   0.296792  -0.046533  -0.007806
     6  C    0.094619   0.012268   0.004295   0.069898   0.058245  -0.002055
     7  H    0.514592  -0.007256   0.000046  -0.000312  -0.002673   0.000099
     8  H   -0.007256   0.526424  -0.000140   0.000041  -0.024213   0.001656
     9  H    0.000046  -0.000140   0.512765  -0.007944  -0.005412   0.000805
    10  H   -0.000312   0.000041  -0.007944   0.511745  -0.000639   0.000014
    11  N   -0.002673  -0.024213  -0.005412  -0.000639   7.213641   0.310462
    12  H    0.000099   0.001656   0.000805   0.000014   0.310462   0.402210
    13  C    0.002380   0.003828   0.002475   0.000324   0.005277   0.013442
    14  O    0.000035   0.000147   0.000341  -0.000018  -0.057384  -0.000733
    15  O    0.000089   0.003436   0.000262  -0.000003  -0.274678   0.015018
    16  C    0.000084  -0.000500   0.000346   0.000021   0.178095  -0.012192
    17  C   -0.000070  -0.001512  -0.000148   0.000002  -0.037754   0.005536
    18  H   -0.000025   0.001808   0.000001   0.000000  -0.001967   0.000096
    19  H   -0.000001   0.000007   0.000001   0.000000   0.000649  -0.000010
    20  H    0.000001   0.000015   0.000000   0.000000  -0.000183  -0.000003
    21  C    0.000031   0.000906   0.000161  -0.000005  -0.061598   0.003388
    22  H    0.000000  -0.000007  -0.000003   0.000000  -0.003635   0.000022
    23  H    0.000000   0.000000   0.000000   0.000000   0.000930  -0.000021
    24  H    0.000000  -0.000011   0.000000   0.000000  -0.001878   0.000020
    25  C    0.000009   0.000858   0.000020   0.000000  -0.005612  -0.004850
    26  H    0.000000  -0.000002   0.000000   0.000000   0.000322   0.000003
    27  H    0.000000   0.000001   0.000000   0.000000  -0.000864   0.000039
    28  H    0.000000  -0.000004   0.000000   0.000000  -0.000436   0.000002
    29  Cl  -0.006164   0.001227   0.000766  -0.002338   0.010820  -0.000401
              13         14         15         16         17         18
     1  C    0.148261  -0.028356   0.016383  -0.020933  -0.026865  -0.004961
     2  C   -0.232690  -0.027947   0.022973   0.045759  -0.101377  -0.025627
     3  C    0.246660   0.094961   0.109075  -0.398650   0.176051   0.035595
     4  C   -0.566065  -0.029452  -0.125909   0.278400   0.008754   0.002577
     5  C    0.062290   0.002400  -0.002752   0.013976  -0.007695  -0.000051
     6  C   -0.154678   0.006596  -0.005124   0.011829  -0.001464  -0.004387
     7  H    0.002380   0.000035   0.000089   0.000084  -0.000070  -0.000025
     8  H    0.003828   0.000147   0.003436  -0.000500  -0.001512   0.001808
     9  H    0.002475   0.000341   0.000262   0.000346  -0.000148   0.000001
    10  H    0.000324  -0.000018  -0.000003   0.000021   0.000002   0.000000
    11  N    0.005277  -0.057384  -0.274678   0.178095  -0.037754  -0.001967
    12  H    0.013442  -0.000733   0.015018  -0.012192   0.005536   0.000096
    13  C    6.133953   0.454283   0.413757  -0.634451   0.114321  -0.030900
    14  O    0.454283   8.022647  -0.229766   0.180755  -0.099314  -0.015433
    15  O    0.413757  -0.229766   8.247207  -0.087852   0.007229  -0.005630
    16  C   -0.634451   0.180755  -0.087852   7.114330  -0.136697   0.026577
    17  C    0.114321  -0.099314   0.007229  -0.136697   5.689415   0.366374
    18  H   -0.030900  -0.015433  -0.005630   0.026577   0.366374   0.540895
    19  H   -0.028855  -0.028125   0.005950  -0.023157   0.445107  -0.023467
    20  H    0.021412   0.005363   0.006298  -0.067606   0.413211  -0.026326
    21  C    0.109283  -0.099237   0.058038  -0.327289  -0.056018  -0.006910
    22  H    0.002187  -0.019033  -0.006547   0.009107  -0.003826  -0.000741
    23  H    0.018657   0.009236   0.002687  -0.055909   0.022441  -0.000349
    24  H   -0.031105  -0.033108   0.005869  -0.000034  -0.024013   0.000833
    25  C   -0.116029   0.048757  -0.216607   0.393509  -0.454386   0.031425
    26  H    0.006747   0.000117   0.017403  -0.034744  -0.010870   0.000059
    27  H    0.000721   0.000058  -0.007147  -0.020358   0.017252  -0.000637
    28  H    0.000452  -0.000056  -0.006347  -0.020428  -0.010588   0.001186
    29  Cl  -0.012426   0.000163  -0.000275   0.000467  -0.000237   0.000015
              19         20         21         22         23         24
     1  C   -0.001610   0.000343   0.021409  -0.000493   0.000022  -0.000104
     2  C   -0.002876   0.002397   0.038121   0.000101  -0.000559   0.001526
     3  C    0.009588  -0.003776   0.065956  -0.003104   0.000639  -0.002647
     4  C   -0.000683  -0.000292  -0.154765   0.000858   0.000614  -0.000180
     5  C   -0.000082   0.000019   0.000837  -0.000447   0.000013  -0.000231
     6  C   -0.000356   0.000174  -0.006923   0.000110  -0.000001   0.000115
     7  H   -0.000001   0.000001   0.000031   0.000000   0.000000   0.000000
     8  H    0.000007   0.000015   0.000906  -0.000007   0.000000  -0.000011
     9  H    0.000001   0.000000   0.000161  -0.000003   0.000000   0.000000
    10  H    0.000000   0.000000  -0.000005   0.000000   0.000000   0.000000
    11  N    0.000649  -0.000183  -0.061598  -0.003635   0.000930  -0.001878
    12  H   -0.000010  -0.000003   0.003388   0.000022  -0.000021   0.000020
    13  C   -0.028855   0.021412   0.109283   0.002187   0.018657  -0.031105
    14  O   -0.028125   0.005363  -0.099237  -0.019033   0.009236  -0.033108
    15  O    0.005950   0.006298   0.058038  -0.006547   0.002687   0.005869
    16  C   -0.023157  -0.067606  -0.327289   0.009107  -0.055909  -0.000034
    17  C    0.445107   0.413211  -0.056018  -0.003826   0.022441  -0.024013
    18  H   -0.023467  -0.026326  -0.006910  -0.000741  -0.000349   0.000833
    19  H    0.498583  -0.028003  -0.013464   0.001043   0.000570   0.001714
    20  H   -0.028003   0.546848   0.014135  -0.000472   0.000131   0.000700
    21  C   -0.013464   0.014135   5.830573   0.392898   0.406841   0.429554
    22  H    0.001043  -0.000472   0.392898   0.516515  -0.024539  -0.022214
    23  H    0.000570   0.000131   0.406841  -0.024539   0.553907  -0.029060
    24  H    0.001714   0.000700   0.429554  -0.022214  -0.029060   0.505176
    25  C    0.009363  -0.017841  -0.328407   0.004179  -0.034986   0.029172
    26  H    0.000275  -0.000214  -0.010874   0.000116  -0.000941   0.000397
    27  H   -0.000501   0.001207  -0.019210   0.001137  -0.001520   0.000251
    28  H    0.000249  -0.001181   0.018069  -0.000573   0.001412  -0.000499
    29  Cl  -0.000009  -0.000001  -0.000178   0.000000   0.000000   0.000001
              25         26         27         28         29
     1  C    0.007883  -0.000051   0.000118   0.000094   0.183110
     2  C    0.028068   0.000084   0.000144  -0.000252   0.274383
     3  C   -0.028371  -0.000254   0.000261   0.000098  -0.194801
     4  C    0.000277   0.000072  -0.000159  -0.000279   0.356618
     5  C    0.004979   0.000002  -0.000010   0.000005  -0.128004
     6  C   -0.001652  -0.000005   0.000009  -0.000007  -1.057606
     7  H    0.000009   0.000000   0.000000   0.000000  -0.006164
     8  H    0.000858  -0.000002   0.000001  -0.000004   0.001227
     9  H    0.000020   0.000000   0.000000   0.000000   0.000766
    10  H    0.000000   0.000000   0.000000   0.000000  -0.002338
    11  N   -0.005612   0.000322  -0.000864  -0.000436   0.010820
    12  H   -0.004850   0.000003   0.000039   0.000002  -0.000401
    13  C   -0.116029   0.006747   0.000721   0.000452  -0.012426
    14  O    0.048757   0.000117   0.000058  -0.000056   0.000163
    15  O   -0.216607   0.017403  -0.007147  -0.006347  -0.000275
    16  C    0.393509  -0.034744  -0.020358  -0.020428   0.000467
    17  C   -0.454386  -0.010870   0.017252  -0.010588  -0.000237
    18  H    0.031425   0.000059  -0.000637   0.001186   0.000015
    19  H    0.009363   0.000275  -0.000501   0.000249  -0.000009
    20  H   -0.017841  -0.000214   0.001207  -0.001181  -0.000001
    21  C   -0.328407  -0.010874  -0.019210   0.018069  -0.000178
    22  H    0.004179   0.000116   0.001137  -0.000573   0.000000
    23  H   -0.034986  -0.000941  -0.001520   0.001412   0.000000
    24  H    0.029172   0.000397   0.000251  -0.000499   0.000001
    25  C    5.899367   0.414553   0.405600   0.392433  -0.000027
    26  H    0.414553   0.522061  -0.027191  -0.027621   0.000000
    27  H    0.405600  -0.027191   0.525910  -0.024996   0.000000
    28  H    0.392433  -0.027621  -0.024996   0.534640   0.000000
    29  Cl  -0.000027   0.000000   0.000000   0.000000  17.239765
 Mulliken charges:
               1
     1  C   -0.838951
     2  C    0.391409
     3  C   -0.546331
     4  C   -0.100815
     5  C   -0.777996
     6  C    0.953961
     7  H    0.153071
     8  H    0.137511
     9  H    0.140358
    10  H    0.155099
    11  N   -0.080196
    12  H    0.270834
    13  C    0.046486
    14  O   -0.157896
    15  O    0.036961
    16  C   -0.412456
    17  C   -0.292858
    18  H    0.139969
    19  H    0.178099
    20  H    0.133645
    21  C   -0.305322
    22  H    0.157361
    23  H    0.129786
    24  H    0.169755
    25  C   -0.461682
    26  H    0.150557
    27  H    0.149884
    28  H    0.144626
    29  Cl   0.335131
 Sum of Mulliken charges =   0.00000
 Mulliken charges with hydrogens summed into heavy atoms:
               1
     1  C   -0.685880
     2  C    0.528920
     3  C   -0.546331
     4  C    0.039542
     5  C   -0.622897
     6  C    0.953961
    11  N    0.190637
    13  C    0.046486
    14  O   -0.157896
    15  O    0.036961
    16  C   -0.412456
    17  C    0.158855
    21  C    0.151580
    25  C   -0.016614
    29  Cl   0.335131
 Electronic spatial extent (au):  <R**2>=           5267.7357
 Charge=              0.0000 electrons
 Dipole moment (field-independent basis, Debye):
    X=             -1.2931    Y=             -0.3198    Z=             -1.9512  Tot=              2.3625
 Quadrupole moment (field-independent basis, Debye-Ang):
   XX=            -97.2997   YY=            -93.6588   ZZ=            -99.7317
   XY=              5.6141   XZ=              1.2356   YZ=              0.9509
 Traceless Quadrupole moment (field-independent basis, Debye-Ang):
   XX=             -0.4030   YY=              3.2379   ZZ=             -2.8350
   XY=              5.6141   XZ=              1.2356   YZ=              0.9509
 Octapole moment (field-independent basis, Debye-Ang**2):
  XXX=            -66.6788  YYY=              1.0274  ZZZ=             -4.9094  XYY=              8.3418
  XXY=              4.2086  XXZ=              9.8366  XZZ=             -1.8447  YZZ=             -0.2435
  YYZ=              0.0206  XYZ=              7.9316
 Hexadecapole moment (field-independent basis, Debye-Ang**3):
 XXXX=          -5970.8158 YYYY=           -718.5113 ZZZZ=           -405.6428 XXXY=             61.7241
 XXXZ=             21.8110 YYYX=             -9.8381 YYYZ=             15.4506 ZZZX=             16.4764
 ZZZY=            -14.0084 XXYY=          -1079.1200 XXZZ=          -1096.5509 YYZZ=           -187.7491
 XXYZ=              9.7195 YYXZ=             10.5106 ZZXY=             -6.0471
 N-N= 1.078175852614D+03 E-N=-4.725121603461D+03  KE= 1.089607012186D+03
 There are a total of      240930 grid points.
 ElSum from          density=      119.9998353962
 ElSum from atomic densities=      119.9994464930

 Hirshfeld populations at iteration   1 (CX, CA, CB, DipXYZ):
               1          2          3          4          5          6
     1  C    0.000000   3.021315   3.021315  -0.001468  -0.058075  -0.008553
     2  C    0.000000   3.022121   3.022121  -0.041262  -0.044536  -0.015430
     3  C    0.000000   2.977557   2.977557  -0.100449   0.044951  -0.019082
     4  C    0.000000   3.017370   3.017370  -0.007780   0.058909   0.025117
     5  C    0.000000   3.020714   3.020714   0.031947   0.041845   0.029107
     6  C    0.000001   2.982635   2.982635   0.086306  -0.038808   0.021784
     7  H    0.000002   0.471009   0.471009   0.014484  -0.157944  -0.038251
     8  H    0.000000   0.472578   0.472578  -0.102324  -0.101154  -0.063320
     9  H    0.000001   0.469762   0.469762  -0.016851   0.156775   0.041515
    10  H    0.000003   0.470642   0.470642   0.105910   0.106475   0.065238
    11  N    0.000000   3.575375   3.575375   0.024091  -0.122384  -0.036979
    12  H    0.000001   0.437940   0.437940  -0.025609  -0.004834  -0.204312
    13  C    0.000000   2.867902   2.867902  -0.039060   0.008020  -0.051045
    14  O    0.000001   4.122626   4.122626  -0.104017  -0.040733  -0.059174
    15  O    0.000000   4.070702   4.070702  -0.014287  -0.035429   0.140681
    16  C    0.000000   2.951889   2.951889   0.041639   0.036966  -0.053935
    17  C    0.000000   3.058320   3.058320  -0.027940  -0.016718   0.003309
    18  H    0.000000   0.485207   0.485207   0.106290  -0.054052  -0.078977
    19  H    0.000000   0.483395   0.483395   0.035236   0.004991   0.143406
    20  H    0.000000   0.483392   0.483392  -0.098596  -0.108252   0.013115
    21  C    0.000000   3.058036   3.058036  -0.029672  -0.011743   0.001352
    22  H    0.000001   0.483176   0.483176   0.019591   0.145735  -0.022134
    23  H    0.000001   0.484788   0.484788  -0.142512  -0.014671   0.020069
    24  H    0.000000   0.482897   0.482897   0.044246  -0.042570   0.136890
    25  C    0.000000   3.050715   3.050715  -0.012101  -0.007498   0.008839
    26  H    0.000000   0.477616   0.477616  -0.108015  -0.075665   0.082188
    27  H    0.000000   0.480980   0.480980  -0.066785   0.121390  -0.058781
    28  H    0.000000   0.481832   0.481832   0.043272  -0.091071  -0.109650
    29  Cl   0.000009   8.537427   8.537427  -0.002682   0.001586   0.003850
       Tot   0.000024  59.999918  59.999918  -0.388402  -0.298496  -0.083165

 Dip from Atomic Chgs             -0.119566   0.173074  -0.684498
         Total Dipole             -0.507969  -0.125422  -0.767662

 Hirshfeld charges, spin densities, dipoles, and CM5 charges using IRadAn=      4:
              Q-H        S-H        Dx         Dy         Dz        Q-CM5   
     1  C   -0.042630   0.000000  -0.001468  -0.058075  -0.008553  -0.092649
     2  C   -0.044243   0.000000  -0.041262  -0.044536  -0.015430  -0.090700
     3  C    0.044886   0.000000  -0.100449   0.044951  -0.019082   0.088125
     4  C   -0.034741   0.000000  -0.007780   0.058909   0.025117  -0.080731
     5  C   -0.041427   0.000000   0.031947   0.041845   0.029107  -0.091408
     6  C    0.034729   0.000000   0.086306  -0.038808   0.021784   0.027990
     7  H    0.057983   0.000000   0.014484  -0.157944  -0.038251   0.110653
     8  H    0.054844   0.000000  -0.102324  -0.101154  -0.063320   0.113101
     9  H    0.060476   0.000000  -0.016851   0.156775   0.041515   0.117117
    10  H    0.058715   0.000000   0.105910   0.106475   0.065238   0.111358
    11  N   -0.150751   0.000000   0.024091  -0.122384  -0.036979  -0.468565
    12  H    0.124121   0.000000  -0.025609  -0.004834  -0.204312   0.328844
    13  C    0.264196   0.000000  -0.039060   0.008020  -0.051045   0.369934
    14  O   -0.245251   0.000000  -0.104017  -0.040733  -0.059174  -0.307620
    15  O   -0.141403   0.000000  -0.014287  -0.035429   0.140681  -0.214167
    16  C    0.096222   0.000000   0.041639   0.036966  -0.053935   0.087951
    17  C   -0.116640   0.000000  -0.027940  -0.016718   0.003309  -0.267920
    18  H    0.029587   0.000000   0.106290  -0.054052  -0.078977   0.091328
    19  H    0.033209   0.000000   0.035236   0.004991   0.143406   0.099416
    20  H    0.033216   0.000000  -0.098596  -0.108252   0.013115   0.089604
    21  C   -0.116072   0.000000  -0.029672  -0.011743   0.001352  -0.267000
    22  H    0.033649   0.000000   0.019591   0.145735  -0.022134   0.097363
    23  H    0.030424   0.000000  -0.142512  -0.014671   0.020069   0.086937
    24  H    0.034207   0.000000   0.044246  -0.042570   0.136890   0.099082
    25  C   -0.101430   0.000000  -0.012101  -0.007498   0.008839  -0.254245
    26  H    0.044768   0.000000  -0.108015  -0.075665   0.082188   0.100590
    27  H    0.038040   0.000000  -0.066785   0.121390  -0.058781   0.095257
    28  H    0.036335   0.000000   0.043272  -0.091071  -0.109650   0.093496
    29  Cl  -0.074855   0.000000  -0.002682   0.001586   0.003850  -0.072976
       Tot   0.000165   0.000000  -0.388402  -0.298496  -0.083165   0.000165
 Hirshfeld charges with hydrogens summed into heavy atoms:
              Q-H       Q-CM5   
     1  C    0.015353   0.018005
     2  C    0.010602   0.022401
     3  C    0.044886   0.088125
     4  C    0.025736   0.036386
     5  C    0.017288   0.019950
     6  C    0.034729   0.027990
    11  N   -0.026630  -0.139721
    13  C    0.264196   0.369934
    14  O   -0.245251  -0.307620
    15  O   -0.141403  -0.214167
    16  C    0.096222   0.087951
    17  C   -0.020629   0.012428
    21  C   -0.017792   0.016383
    25  C    0.017713   0.035098
    29  Cl  -0.074855  -0.072976
 
 EQQ= 0.000000000000E+00 EQD= 0.000000000000E+00 EDD= 0.551125656977E-02
 EQQ+QD+DD= 0.551125656977E-02
 
          MBS Condensed to atoms (all electrons):
               1          2          3          4          5          6
     1  C    4.821708   0.501919  -0.028966  -0.010174  -0.033267   0.503699
     2  C    0.501919   4.837672   0.503538  -0.036171  -0.010185  -0.028308
     3  C   -0.028966   0.503538   4.727723   0.504011  -0.029201  -0.011795
     4  C   -0.010174  -0.036171   0.504011   4.816886   0.501696  -0.028113
     5  C   -0.033267  -0.010185  -0.029201   0.501696   4.821643   0.503590
     6  C    0.503699  -0.028308  -0.011795  -0.028113   0.503590   4.718660
     7  H    0.385116  -0.023234   0.001368   0.000035   0.001393  -0.024895
     8  H   -0.023486   0.384739  -0.025347   0.001395   0.000044   0.001362
     9  H    0.000038   0.001424  -0.024273   0.384469  -0.023205   0.001358
    10  H    0.001389   0.000037   0.001382  -0.023278   0.385432  -0.024980
    11  N    0.000621  -0.027695   0.330815  -0.028957   0.000599   0.000015
    12  H   -0.000005  -0.001647  -0.029187   0.001012  -0.000039   0.000003
    13  C    0.000041  -0.003772  -0.027330   0.000532  -0.000014   0.000001
    14  O   -0.000003  -0.000041  -0.000841  -0.000024   0.000000   0.000000
    15  O    0.000000  -0.000009   0.000442  -0.000002   0.000000   0.000000
    16  C    0.000000  -0.000001  -0.000028   0.000000   0.000000   0.000000
    17  C    0.000000  -0.000034   0.000005   0.000000   0.000000   0.000000
    18  H    0.000000  -0.000007   0.000001   0.000000   0.000000   0.000000
    19  H    0.000000   0.000004  -0.000001   0.000000   0.000000   0.000000
    20  H    0.000000   0.000000   0.000000   0.000000   0.000000   0.000000
    21  C    0.000000   0.000000  -0.000001   0.000000   0.000000   0.000000
    22  H    0.000000   0.000000   0.000002   0.000000   0.000000   0.000000
    23  H    0.000000   0.000000   0.000000   0.000000   0.000000   0.000000
    24  H    0.000000   0.000000   0.000000   0.000000   0.000000   0.000000
    25  C    0.000000   0.000000   0.000000   0.000000   0.000000   0.000000
    26  H    0.000000   0.000000   0.000000   0.000000   0.000000   0.000000
    27  H    0.000000   0.000000   0.000000   0.000000   0.000000   0.000000
    28  H    0.000000   0.000000   0.000000   0.000000   0.000000   0.000000
    29  Cl  -0.028526   0.000649   0.000012   0.000650  -0.028539   0.264058
               7          8          9         10         11         12
     1  C    0.385116  -0.023486   0.000038   0.001389   0.000621  -0.000005
     2  C   -0.023234   0.384739   0.001424   0.000037  -0.027695  -0.001647
     3  C    0.001368  -0.025347  -0.024273   0.001382   0.330815  -0.029187
     4  C    0.000035   0.001395   0.384469  -0.023278  -0.028957   0.001012
     5  C    0.001393   0.000044  -0.023205   0.385432   0.000599  -0.000039
     6  C   -0.024895   0.001362   0.001358  -0.024980   0.000015   0.000003
     7  H    0.542870  -0.003985   0.000002  -0.000043  -0.000011   0.000000
     8  H   -0.003985   0.553372  -0.000043   0.000002  -0.002425   0.000577
     9  H    0.000002  -0.000043   0.538196  -0.004003  -0.001134   0.000057
    10  H   -0.000043   0.000002  -0.004003   0.541845  -0.000010   0.000001
    11  N   -0.000011  -0.002425  -0.001134  -0.000010   6.556877   0.324626
    12  H    0.000000   0.000577   0.000057   0.000001   0.324626   0.443539
    13  C   -0.000001   0.000623   0.000034   0.000000   0.328531  -0.028157
    14  O    0.000000  -0.000051   0.000000   0.000000  -0.016546   0.000811
    15  O    0.000000   0.000063   0.000000   0.000000  -0.027576   0.001523
    16  C    0.000000  -0.000001   0.000000   0.000000   0.001069  -0.000025
    17  C    0.000000  -0.000048   0.000000   0.000000  -0.000009   0.000006
    18  H    0.000000   0.000500   0.000000   0.000000  -0.000063   0.000009
    19  H    0.000000  -0.000003   0.000000   0.000000   0.000001  -0.000001
    20  H    0.000000   0.000000   0.000000   0.000000   0.000001  -0.000001
    21  C    0.000000   0.000001   0.000000   0.000000  -0.000008   0.000005
    22  H    0.000000   0.000000   0.000000   0.000000  -0.000083   0.000008
    23  H    0.000000   0.000000   0.000000   0.000000   0.000001   0.000000
    24  H    0.000000   0.000000   0.000000   0.000000  -0.000001  -0.000001
    25  C    0.000000   0.000000   0.000000   0.000000  -0.000005  -0.000006
    26  H    0.000000   0.000000   0.000000   0.000000   0.000000   0.000000
    27  H    0.000000   0.000000   0.000000   0.000000   0.000000   0.000001
    28  H    0.000000   0.000001   0.000000   0.000000   0.000000   0.000001
    29  Cl  -0.001874  -0.000012  -0.000012  -0.001867   0.000000   0.000000
              13         14         15         16         17         18
     1  C    0.000041  -0.000003   0.000000   0.000000   0.000000   0.000000
     2  C   -0.003772  -0.000041  -0.000009  -0.000001  -0.000034  -0.000007
     3  C   -0.027330  -0.000841   0.000442  -0.000028   0.000005   0.000001
     4  C    0.000532  -0.000024  -0.000002   0.000000   0.000000   0.000000
     5  C   -0.000014   0.000000   0.000000   0.000000   0.000000   0.000000
     6  C    0.000001   0.000000   0.000000   0.000000   0.000000   0.000000
     7  H   -0.000001   0.000000   0.000000   0.000000   0.000000   0.000000
     8  H    0.000623  -0.000051   0.000063  -0.000001  -0.000048   0.000500
     9  H    0.000034   0.000000   0.000000   0.000000   0.000000   0.000000
    10  H    0.000000   0.000000   0.000000   0.000000   0.000000   0.000000
    11  N    0.328531  -0.016546  -0.027576   0.001069  -0.000009  -0.000063
    12  H   -0.028157   0.000811   0.001523  -0.000025   0.000006   0.000009
    13  C    4.475895   0.450737   0.295954  -0.038309  -0.005297   0.000055
    14  O    0.450737   8.075098  -0.029149  -0.003822  -0.005507  -0.000812
    15  O    0.295954  -0.029149   7.954213   0.255008  -0.021961  -0.001664
    16  C   -0.038309  -0.003822   0.255008   4.668970   0.364716  -0.022070
    17  C   -0.005297  -0.005507  -0.021961   0.364716   4.875451   0.376420
    18  H    0.000055  -0.000812  -0.001664  -0.022070   0.376420   0.600237
    19  H   -0.000775   0.001005   0.000440  -0.022558   0.384499  -0.021654
    20  H    0.000144   0.000304   0.000688  -0.021860   0.375415  -0.020795
    21  C   -0.006290  -0.004662  -0.021726   0.363912  -0.030469   0.001663
    22  H    0.000044  -0.001732  -0.002182  -0.021378   0.001567  -0.000101
    23  H    0.000167   0.000383   0.000650  -0.022751   0.001018  -0.000038
    24  H   -0.000469  -0.000743   0.000635  -0.022547  -0.008007   0.000235
    25  C    0.001644   0.000046  -0.019510   0.367775  -0.028979   0.000017
    26  H   -0.000044   0.000003   0.000693  -0.019360  -0.002537   0.000092
    27  H   -0.000004   0.000000  -0.000323  -0.022472   0.001702  -0.000064
    28  H   -0.000010   0.000000  -0.000278  -0.022733  -0.002586   0.000310
    29  Cl   0.000000   0.000000   0.000000   0.000000   0.000000   0.000000
              19         20         21         22         23         24
     1  C    0.000000   0.000000   0.000000   0.000000   0.000000   0.000000
     2  C    0.000004   0.000000   0.000000   0.000000   0.000000   0.000000
     3  C   -0.000001   0.000000  -0.000001   0.000002   0.000000   0.000000
     4  C    0.000000   0.000000   0.000000   0.000000   0.000000   0.000000
     5  C    0.000000   0.000000   0.000000   0.000000   0.000000   0.000000
     6  C    0.000000   0.000000   0.000000   0.000000   0.000000   0.000000
     7  H    0.000000   0.000000   0.000000   0.000000   0.000000   0.000000
     8  H   -0.000003   0.000000   0.000001   0.000000   0.000000   0.000000
     9  H    0.000000   0.000000   0.000000   0.000000   0.000000   0.000000
    10  H    0.000000   0.000000   0.000000   0.000000   0.000000   0.000000
    11  N    0.000001   0.000001  -0.000008  -0.000083   0.000001  -0.000001
    12  H   -0.000001  -0.000001   0.000005   0.000008   0.000000  -0.000001
    13  C   -0.000775   0.000144  -0.006290   0.000044   0.000167  -0.000469
    14  O    0.001005   0.000304  -0.004662  -0.001732   0.000383  -0.000743
    15  O    0.000440   0.000688  -0.021726  -0.002182   0.000650   0.000635
    16  C   -0.022558  -0.021860   0.363912  -0.021378  -0.022751  -0.022547
    17  C    0.384499   0.375415  -0.030469   0.001567   0.001018  -0.008007
    18  H   -0.021654  -0.020795   0.001663  -0.000101  -0.000038   0.000235
    19  H    0.563260  -0.022196  -0.007838   0.000245   0.000099   0.001116
    20  H   -0.022196   0.606932   0.000738  -0.000028  -0.000057   0.000070
    21  C   -0.007838   0.000738   4.869361   0.378890   0.374796   0.385347
    22  H    0.000245  -0.000028   0.378890   0.587412  -0.021067  -0.021068
    23  H    0.000099  -0.000057   0.374796  -0.021067   0.613752  -0.022887
    24  H    0.001116   0.000070   0.385347  -0.021068  -0.022887   0.569351
    25  C    0.001512  -0.005464  -0.028661   0.000379  -0.006159   0.001472
    26  H    0.000021   0.000300  -0.002759   0.000090   0.000305   0.000026
    27  H   -0.000067   0.000149  -0.002506   0.000207   0.000313   0.000020
    28  H    0.000020   0.000221   0.001720  -0.000068   0.000169  -0.000069
    29  Cl   0.000000   0.000000   0.000000   0.000000   0.000000   0.000000
              25         26         27         28         29
     1  C    0.000000   0.000000   0.000000   0.000000  -0.028526
     2  C    0.000000   0.000000   0.000000   0.000000   0.000649
     3  C    0.000000   0.000000   0.000000   0.000000   0.000012
     4  C    0.000000   0.000000   0.000000   0.000000   0.000650
     5  C    0.000000   0.000000   0.000000   0.000000  -0.028539
     6  C    0.000000   0.000000   0.000000   0.000000   0.264058
     7  H    0.000000   0.000000   0.000000   0.000000  -0.001874
     8  H    0.000000   0.000000   0.000000   0.000001  -0.000012
     9  H    0.000000   0.000000   0.000000   0.000000  -0.000012
    10  H    0.000000   0.000000   0.000000   0.000000  -0.001867
    11  N   -0.000005   0.000000   0.000000   0.000000   0.000000
    12  H   -0.000006   0.000000   0.000001   0.000001   0.000000
    13  C    0.001644  -0.000044  -0.000004  -0.000010   0.000000
    14  O    0.000046   0.000003   0.000000   0.000000   0.000000
    15  O   -0.019510   0.000693  -0.000323  -0.000278   0.000000
    16  C    0.367775  -0.019360  -0.022472  -0.022733   0.000000
    17  C   -0.028979  -0.002537   0.001702  -0.002586   0.000000
    18  H    0.000017   0.000092  -0.000064   0.000310   0.000000
    19  H    0.001512   0.000021  -0.000067   0.000020   0.000000
    20  H   -0.005464   0.000300   0.000149   0.000221   0.000000
    21  C   -0.028661  -0.002759  -0.002506   0.001720   0.000000
    22  H    0.000379   0.000090   0.000207  -0.000068   0.000000
    23  H   -0.006159   0.000305   0.000313   0.000169   0.000000
    24  H    0.001472   0.000026   0.000020  -0.000069   0.000000
    25  C    4.843889   0.382792   0.378733   0.378473   0.000000
    26  H    0.382792   0.582188  -0.021753  -0.021920   0.000000
    27  H    0.378733  -0.021753   0.590646  -0.022801   0.000000
    28  H    0.378473  -0.021920  -0.022801   0.594394   0.000000
    29  Cl   0.000000   0.000000   0.000000   0.000000  16.999303
 MBS Mulliken charges:
               1
     1  C   -0.090103
     2  C   -0.098877
     3  C    0.107670
     4  C   -0.083966
     5  C   -0.089947
     6  C    0.125346
     7  H    0.123258
     8  H    0.112721
     9  H    0.127092
    10  H    0.124093
    11  N   -0.438633
    12  H    0.286892
    13  C    0.556069
    14  O   -0.464452
    15  O   -0.385929
    16  C    0.218466
    17  C   -0.275366
    18  H    0.087729
    19  H    0.122872
    20  H    0.085438
    21  C   -0.271513
    22  H    0.098863
    23  H    0.081305
    24  H    0.117519
    25  C   -0.267947
    26  H    0.101864
    27  H    0.098221
    28  H    0.095160
    29  Cl  -0.203843
 Sum of MBS Mulliken charges =   0.00000
 MBS Mulliken charges with hydrogens summed into heavy atoms:
               1
     1  C    0.033154
     2  C    0.013844
     3  C    0.107670
     4  C    0.043126
     5  C    0.034146
     6  C    0.125346
    11  N   -0.151741
    13  C    0.556069
    14  O   -0.464452
    15  O   -0.385929
    16  C    0.218466
    17  C    0.020674
    21  C    0.026174
    25  C    0.027297
    29  Cl  -0.203843
 Breneman (CHELPG) radii used.
 Generate Potential Derived Charges using the Breneman model, NDens= 1.
 Grid spacing= 0.300 Box extension= 2.800
 NStep X,Y,Z=   55     37     33   Total possible points=       67155
 Number of Points to Fit=   17013

 **********************************************************************

            Electrostatic Properties Using The SCF Density

 **********************************************************************

       Atomic Center    1 is at   2.388925 -0.995729 -0.551220
       Atomic Center    2 is at   1.126152 -0.459221 -0.804268
       Atomic Center    3 is at   0.865510  0.879285 -0.511542
       Atomic Center    4 is at   1.867551  1.681633  0.035604
       Atomic Center    5 is at   3.129856  1.145060  0.289006
       Atomic Center    6 is at   3.390708 -0.193616 -0.004783
       Atomic Center    7 is at   2.594346 -2.050934 -0.782495
       Atomic Center    8 is at   0.336809 -1.091653 -1.235789
       Atomic Center    9 is at   1.661793  2.736954  0.266380
       Atomic Center   10 is at   3.919790  1.777144  0.720224
       Atomic Center   11 is at  -0.464719  1.444887 -0.778908
       Atomic Center   12 is at  -0.670447  1.366268 -1.754354
       Atomic Center   13 is at  -1.474625  0.709383 -0.004296
       Atomic Center   14 is at  -1.497716  0.416311  1.190332
       Atomic Center   15 is at  -2.523136  0.314109 -0.769668
       Atomic Center   16 is at  -3.481836 -0.396464  0.018292
       Atomic Center   17 is at  -2.827606 -1.660771  0.605752
       Atomic Center   18 is at  -2.011859 -1.962645 -0.017409
       Atomic Center   19 is at  -2.465411 -1.450301  1.590341
       Atomic Center   20 is at  -3.550985 -2.447815  0.652492
       Atomic Center   21 is at  -3.974651  0.506351  1.164442
       Atomic Center   22 is at  -3.736104  1.525709  0.943297
       Atomic Center   23 is at  -5.034424  0.402778  1.269577
       Atomic Center   24 is at  -3.495835  0.217846  2.076802
       Atomic Center   25 is at  -4.675696 -0.800202 -0.866746
       Atomic Center   26 is at  -5.399867 -1.318861 -0.273896
       Atomic Center   27 is at  -5.121103  0.077313 -1.286841
       Atomic Center   28 is at  -4.335620 -1.439580 -1.654429
       Atomic Center   29 is at   4.983707 -0.870238  0.314806
   17013 points will be used for fitting atomic charges
 Fitting point charges to electrostatic potential
 Charges from ESP fit, RMS=   0.00364 RRMS=   0.30857:
 ESP charges:
               1
     1  C   -0.005831
     2  C   -0.280156
     3  C    0.391108
     4  C   -0.195172
     5  C   -0.049827
     6  C    0.038886
     7  H    0.094240
     8  H    0.134132
     9  H    0.137312
    10  H    0.102474
    11  N   -0.792432
    12  H    0.359753
    13  C    1.056983
    14  O   -0.643001
    15  O   -0.683217
    16  C    0.922973
    17  C   -0.582082
    18  H    0.133273
    19  H    0.165565
    20  H    0.088658
    21  C   -0.417067
    22  H    0.090562
    23  H    0.041648
    24  H    0.131710
    25  C   -0.284159
    26  H    0.068923
    27  H    0.053343
    28  H    0.048219
    29  Cl  -0.126818
 Sum of ESP charges =   0.00000
 ESP charges with hydrogens summed into heavy atoms:
               1
     1  C    0.088409
     2  C   -0.146024
     3  C    0.391108
     4  C   -0.057860
     5  C    0.052647
     6  C    0.038886
    11  N   -0.432679
    13  C    1.056983
    14  O   -0.643001
    15  O   -0.683217
    16  C    0.922973
    17  C   -0.194586
    21  C   -0.153147
    25  C   -0.113673
    29  Cl  -0.126818
 Charge=   0.00000 Dipole=    -1.3071    -0.2213    -2.0740 Tot=     2.4615
 -----------------------------------------------------------------

              Electrostatic Properties (Atomic Units)

 -----------------------------------------------------------------
    Center     Electric         -------- Electric Field --------
               Potential          X             Y             Z
 -----------------------------------------------------------------
    1 Atom    -14.745951
    2 Atom    -14.747137
    3 Atom    -14.713118
    4 Atom    -14.750482
    5 Atom    -14.747464
    6 Atom    -14.697156
    7 Atom     -1.081321
    8 Atom     -1.076639
    9 Atom     -1.085291
   10 Atom     -1.082920
   11 Atom    -18.354340
   12 Atom     -1.014952
   13 Atom    -14.607712
   14 Atom    -22.385110
   15 Atom    -22.320099
   16 Atom    -14.702519
   17 Atom    -14.798245
   18 Atom     -1.123168
   19 Atom     -1.136263
   20 Atom     -1.127424
   21 Atom    -14.800737
   22 Atom     -1.127404
   23 Atom     -1.132541
   24 Atom     -1.138296
   25 Atom    -14.784900
   26 Atom     -1.112322
   27 Atom     -1.120247
   28 Atom     -1.120248
   29 Atom    -64.388018
 -----------------------------------------------------------------
 ******************************Gaussian NBO Version 3.1******************************
             N A T U R A L   A T O M I C   O R B I T A L   A N D
          N A T U R A L   B O N D   O R B I T A L   A N A L Y S I S
 ******************************Gaussian NBO Version 3.1******************************
       /RESON  / : Allow strongly delocalized NBO set

 Analyzing the SCF density

 Job title: Title Card Required                                             

 Storage needed:    537226 in NPA ( 536866417 available)


 NATURAL POPULATIONS:  Natural atomic orbital occupancies 
                                                          
   NAO  Atom  No  lang   Type(AO)    Occupancy      Energy
 ----------------------------------------------------------
     1    C    1  S      Cor( 1S)     1.99896     -10.05590
     2    C    1  S      Val( 2S)     0.94952      -0.18467
     3    C    1  S      Ryd( 3S)     0.00205       0.77167
     4    C    1  S      Ryd( 4S)     0.00031       1.25103
     5    C    1  S      Ryd( 5S)     0.00001      22.58075
     6    C    1  px     Val( 2p)     1.06219      -0.08155
     7    C    1  px     Ryd( 4p)     0.00494       0.74032
     8    C    1  px     Ryd( 3p)     0.00034       0.41630
     9    C    1  px     Ryd( 5p)     0.00014       3.09223
    10    C    1  py     Val( 2p)     1.17371      -0.09623
    11    C    1  py     Ryd( 4p)     0.00598       0.97860
    12    C    1  py     Ryd( 3p)     0.00034       0.31553
    13    C    1  py     Ryd( 5p)     0.00007       3.13867
    14    C    1  pz     Val( 2p)     1.01261      -0.12429
[...]
 5,0.00111349,0.00247386,-0.01232408,0.02075810,0.01719219,0.00099153,0
 .00035786,0.00009373,0.00038971,-0.00021960,-0.00005717,-0.00009938,0.
 00008214,0.00004028,-0.00039854,-0.00043567,-0.00075909,-0.11540954,0.
 08213563,0.07705485,0.00833905,-0.01030397,-0.00809072,0.12499470,0.00
 000276,-0.00000540,0.00000308,0.00001939,-0.00003627,-0.00001675,-0.00
 005703,0.00024499,0.00006234,-0.00000426,-0.00005447,0.00003720,0.0000
 1963,0.00001586,-0.00002615,-0.00001916,0.00004233,0.00000967,0.000001
 85,-0.00000295,-0.00000404,-0.00000467,0.00000003,0.00000187,-0.000023
 82,0.00004516,-0.00002150,-0.00000073,-0.00000465,0.00000175,0.0001467
 8,0.00004891,-0.00043343,-0.00001334,-0.00003626,-0.00008989,-0.001121
 86,-0.00183844,0.00189383,0.00176490,0.00009961,-0.00089218,-0.0035550
 6,0.00197499,0.00190299,-0.00441562,0.00527067,0.00608934,0.00018942,-
 0.00002877,-0.00024511,0.00008324,0.00005846,0.00026148,0.00007810,-0.
 00008508,-0.00013359,-0.00020916,0.00037930,0.00007874,0.08460565,-0.1
 5043663,-0.09727667,-0.00036915,-0.00104332,0.00017019,-0.09099190,0.1
 6165571,0.00000032,-0.00000634,0.00000546,0.00001748,-0.00003698,-0.00
 001045,-0.00008707,0.00019745,0.00000896,0.00001801,-0.00004175,-0.000
 00123,-0.00000277,0.00000771,-0.00000002,-0.00000711,0.00003848,0.0000
 0107,0.00000226,-0.00000357,-0.00000267,-0.00000623,0.00000120,0.00000
 366,-0.00000649,0.00001296,-0.00000133,0.,-0.00000380,0.00000125,0.000
 16103,-0.00032270,-0.00003795,-0.00004689,-0.00000655,0.00005322,-0.00
 024500,0.00180323,-0.00066670,-0.00066402,-0.00010436,0.00049012,0.001
 81366,-0.00038856,0.00102438,0.00053784,-0.00236358,-0.00394576,-0.000
 32282,-0.00010998,-0.00021678,0.00010076,0.00015762,0.00006875,-0.0001
 0309,0.00009206,-0.00000401,-0.00041151,0.00004471,0.00028639,0.078597
 70,-0.09583530,-0.13477580,0.01550265,-0.01792617,-0.01580727,-0.08674
 548,0.10669017,0.14415418,0.00000380,-0.00000258,0.00000190,0.00004497
 ,-0.00007622,-0.00004470,-0.00018154,0.00045333,0.00010601,-0.00001708
 ,-0.00010309,0.00003697,0.00003047,0.00001735,-0.00003736,-0.00002322,
 0.00005524,0.00002009,0.00000491,-0.00000567,-0.00000552,-0.00000450,0
 .00000289,0.00000410,-0.00001778,0.00008406,-0.00000239,0.00000440,-0.
 00000815,0.00000406,0.00039346,-0.00000529,-0.00103713,0.00002791,-0.0
 0010910,-0.00009154,-0.00193260,-0.00198468,0.00401009,0.00008173,0.00
 192950,-0.00172390,0.00181954,0.00225772,-0.00109082,0.00096235,-0.031
 30733,0.01285658,0.00152253,0.00004044,0.00102901,0.00014430,0.0002919
 2,0.00008988,-0.00035967,0.00003409,-0.00074190,-0.00004550,0.00009056
 ,0.00000254,-0.04705989,0.00137821,-0.00171060,-0.00041905,0.01330254,
 -0.00469618,-0.00021774,0.01443528,-0.00797607,0.05150883,0.00000277,0
 .00000524,-0.00000216,-0.00000329,0.00001368,0.00000444,0.00000734,-0.
 00007816,-0.00001152,-0.00001355,-0.00000806,0.00000055,0.00000166,-0.
 00000518,0.00000229,0.00000581,-0.00001580,-0.00000311,-0.00000158,0.0
 0000128,0.00000182,0.00000047,-0.00000088,-0.00000290,0.00002849,-0.00
 000850,-0.00000918,0.00000099,0.00000236,-0.00000064,-0.00018191,0.000
 10198,0.00000793,0.00002471,0.00001338,-0.00002370,0.00034031,-0.00006
 831,0.00010285,0.00271112,-0.00195748,-0.00060067,-0.00009943,0.000565
 18,0.00008824,0.00052244,-0.01013953,0.00351814,0.00078887,0.00019165,
 0.00013710,0.00006405,0.00024674,-0.00004886,-0.00037799,0.00033238,-0
 .00031274,-0.00011801,-0.00013516,0.00000497,-0.00358244,-0.27162739,0
 .10334844,0.00046457,0.00380447,-0.00163998,-0.00029425,-0.01618477,0.
 00781912,0.00207077,0.29448526,-0.00000680,0.00001186,0.00000392,-0.00
 003164,0.00004437,0.00000470,0.00011243,-0.00025482,-0.00003987,-0.000
 01369,0.00006039,-0.00003474,-0.00002181,-0.00002367,0.00001630,0.0000
 1632,-0.00005439,-0.00001062,-0.00000161,0.00000473,0.00000473,0.00000
 568,-0.00000167,0.00000240,0.00004185,-0.00004513,0.00003593,0.0000036
 2,0.00000544,0.00000097,-0.00014415,0.00011845,0.00047168,0.00001758,0
 .00006754,0.00003955,0.00148294,0.00113523,-0.00182416,-0.00166912,-0.
 00023666,0.00061392,-0.00028304,-0.00062814,0.00018258,0.00045340,0.00
 279571,-0.00287077,-0.00002879,-0.00091983,0.00020585,0.00010006,0.000
 04739,-0.00010565,-0.00025178,0.00002721,0.00033903,-0.00004486,-0.000
 15523,-0.00000834,-0.00014167,0.10259178,-0.09612652,0.00076549,0.0264
 8097,-0.01096082,-0.00109393,-0.01867734,0.00912879,0.00007091,-0.1126
 8847,0.09964802,-0.00001779,-0.00000813,0.00000918,-0.00004467,0.00016
 393,0.00001684,-0.00000712,-0.00047294,0.00019961,0.00000616,0.0000818
 2,-0.00001061,-0.00000137,-0.00001444,0.00001800,0.00001738,-0.0000186
 8,0.00000061,-0.00000503,0.00001519,0.00000872,0.00001800,-0.00000314,
 0.00000373,-0.00000637,-0.00003023,0.00000159,-0.00000509,0.00001186,-
 0.00000298,-0.00062769,0.00162279,0.00012118,0.00016701,0.00005036,-0.
 00000128,-0.00162562,-0.00096907,0.00285563,0.00091125,0.00080887,-0.0
 0100287,-0.00442302,0.02744257,-0.00141016,-0.07624895,-0.00941515,-0.
 00096438,-0.00044894,0.01607408,-0.01076150,0.00025943,0.00094291,-0.0
 0027525,-0.00158124,0.00000308,-0.00313175,0.00022397,0.00021422,0.000
 91708,-0.00259292,-0.03262199,0.01404219,0.00091434,-0.00008622,0.0005
 0309,0.00103860,-0.00009717,-0.00022197,-0.00620436,-0.00260571,0.0007
 9073,0.58205473,0.00000102,0.00000314,-0.00001403,0.00003617,-0.000106
 63,-0.00001293,0.00000585,0.00030232,-0.00016426,0.00000711,-0.0000380
 3,0.00001618,0.00000561,0.00000278,-0.00001258,-0.00000945,0.00002641,
 0.00001555,0.00000571,-0.00000877,-0.00000511,-0.00000238,0.00000488,0
 .00001098,-0.00000313,0.00001205,-0.00000565,0.00000093,-0.00000968,0.
 00000044,0.00027632,-0.00115877,-0.00005513,0.00002035,0.00003248,0.00
 002954,0.00121531,0.00043011,-0.00265622,-0.00029258,-0.00026678,0.000
 94798,0.01041242,-0.03978810,-0.00026313,-0.00353967,-0.15529390,0.042
 34876,0.00198986,-0.00068246,0.00830069,-0.00066598,0.00014759,-0.0011
 3284,-0.00081277,0.00091191,-0.00160311,-0.00001157,-0.00030456,-0.000
 52457,-0.00860895,-0.01525662,0.00911959,0.00145755,0.00037834,0.00009
 948,0.00101709,-0.00017728,-0.00036973,-0.00101711,0.00049871,-0.00013
 142,0.00012271,0.48764412,0.00000758,0.00000094,-0.00003437,0.00007887
 ,-0.00025687,-0.00002163,-0.00002529,0.00074237,-0.00031969,0.00002584
 ,-0.00013076,0.00003497,0.00000740,0.00001956,-0.00001906,-0.00000814,
 0.00004610,0.00000964,0.00001261,-0.00002258,-0.00000992,0.00000332,0.
 00001284,0.00000679,-0.00001102,0.00004530,-0.00001324,0.00000193,-0.0
 0001850,0.00000084,0.00075204,-0.00259785,-0.00036595,0.00001263,-0.00
 002656,0.00016688,0.00183425,0.00146424,-0.00449457,-0.00048752,-0.001
 13069,0.00202811,0.00656061,-0.03240488,0.00441973,-0.00371551,0.05343
 488,-0.09709387,-0.00349125,0.03014535,-0.01823211,0.00118156,-0.00000
 203,0.00122347,-0.00291798,-0.00013845,-0.00473940,0.00024417,0.000550
 55,0.00085490,0.00212262,0.00601772,-0.00151710,-0.00092246,-0.0011551
 5,0.00033718,0.00003625,0.00022821,-0.00008728,0.00021528,-0.00013590,
 0.00029743,-0.00081133,0.04377080,0.56268832,0.00000207,0.00000448,0.0
 0000135,-0.00001662,0.00002341,0.00001791,0.00003123,-0.00015328,-0.00
 003475,-0.00000730,0.00003917,-0.00000803,0.00000002,0.00000124,0.0000
 0345,0.00000980,-0.00003037,-0.00000625,-0.00000114,0.00000146,0.00000
 168,0.00000031,-0.00000160,-0.00000723,0.00000129,-0.00001398,0.000001
 97,0.00000006,0.00000303,-0.00000026,-0.00009414,0.00018681,0.00010218
 ,-0.00001032,-0.00005231,-0.00003566,0.00069450,-0.00087105,0.00027434
 ,-0.00007686,0.00029282,-0.00037458,0.00065462,0.00079603,-0.00018830,
 -0.00211768,-0.00087767,0.00024407,-0.00016202,-0.00001663,0.00020129,
 0.00000608,0.00015078,0.00007184,0.00003169,-0.00017840,-0.00018348,0.
 00025073,0.00011859,-0.00053860,-0.00026008,-0.00030622,0.00004762,0.0
 0002580,-0.00010637,-0.00008378,0.00007978,-0.00066583,0.00015161,0.00
 004920,0.00008720,-0.00014562,-0.10589189,0.08189097,0.07444984,0.1118
 4143,0.00001262,-0.00000733,-0.00001781,0.00004342,-0.00012759,-0.0000
 2377,-0.00006533,0.00044655,-0.00009592,0.00001324,-0.00009333,0.00001
 696,0.00000308,0.00000176,-0.00000438,-0.00002140,0.00006406,0.0000086
 4,0.00000517,-0.00001059,-0.00000471,-0.00000469,0.00000506,0.00000471
 ,-0.00000576,0.00003393,-0.00000550,0.00000204,-0.00000871,0.00000076,
 0.00041783,-0.00118760,-0.00023028,-0.00005191,-0.00000506,0.00008071,
 0.00045770,0.00230222,-0.00164771,-0.00038366,-0.00069336,0.00095318,0
 .00159904,-0.00913720,0.00160969,0.01324198,-0.01436815,-0.01930185,-0
 .00006047,0.00079238,-0.00110984,-0.00006615,0.00000985,0.00009167,-0.
 00036312,0.00019128,0.00011290,0.00002087,0.00030876,0.00085240,0.0005
 6761,0.00088222,-0.00080316,-0.00000875,-0.00004083,0.00008081,-0.0008
 4142,-0.00008825,0.00058894,-0.00001816,0.00034161,0.00030303,0.080115
 79,-0.15819927,-0.09874741,-0.08958545,0.17165507,-0.00000197,-0.00000
 337,0.00000990,0.00000800,0.00001420,-0.00002428,-0.00007489,0.0000686
 0,0.00008547,0.00000387,-0.00003088,0.00000448,0.00000312,-0.00000351,
 -0.00000036,-0.00001153,0.00002991,0.00000521,-0.00000011,0.00000212,-
 0.00000067,-0.00000576,-0.00000106,0.00000752,-0.00000190,0.00001001,-
 0.00000227,0.00000036,-0.00000125,0.00000081,-0.00000613,0.00020665,-0
 .00007880,-0.00003569,0.00008128,-0.00001263,-0.00034735,0.00085792,0.
 00087755,-0.00005810,-0.00032289,0.00005796,-0.00056448,0.00312680,0.0
 0035415,-0.00636598,0.00734798,0.00637035,-0.00012776,-0.00011907,0.00
 002403,-0.00009048,0.00001505,-0.00002618,0.00007611,-0.00009208,0.000
 23904,-0.00027526,0.00062295,-0.00026290,-0.00001100,-0.00022959,0.000
 03150,0.00013415,-0.00006779,0.00000475,0.00001691,0.00030236,0.000307
 17,-0.00026931,-0.00003938,0.00007133,0.07528012,-0.10209796,-0.140424
 18,-0.08292038,0.11011383,0.15064299,-0.00000464,0.00000311,0.00001000
 ,0.00001722,0.00000477,-0.00002333,-0.00003789,0.00006702,0.00003753,0
 .00001007,-0.00002111,-0.00000268,0.00000006,-0.00000606,0.00000029,-0
 .00000603,0.00000865,0.00000641,-0.00000074,0.00000135,-0.00000183,-0.
 00001070,-0.00000197,0.00000737,-0.00000328,0.00000058,-0.00000294,0.0
 0000043,-0.00000452,-0.00000031,0.00002402,-0.00002353,0.00004711,-0.0
 0009222,0.00011662,-0.00003166,0.00001210,0.00041404,-0.00016051,-0.00
 012122,-0.00027653,0.00034265,0.00013328,-0.00018493,0.00024009,-0.001
 52594,0.00031885,-0.00003281,0.00039328,0.00064115,0.00023912,0.000445
 88,-0.00010012,0.00027304,0.00047725,-0.00009200,-0.00031846,-0.000001
 12,-0.00021815,-0.00014684,0.00029150,-0.00012260,0.00098033,0.0002560
 8,-0.00036424,0.00009269,-0.00002719,0.00001365,0.00016233,-0.00003022
 ,0.00013157,-0.00000243,-0.10539395,-0.00511499,-0.10910984,0.00783760
 ,-0.00059019,0.01457185,0.11025195,0.00000050,0.00000023,-0.00000379,-
 0.00001899,0.00002711,0.00001415,0.00004938,-0.00015717,-0.00001784,-0
 .00003937,0.00002773,-0.00001595,0.00001025,-0.00000044,0.00000690,0.0
 0000698,-0.00002160,-0.00000478,-0.00000081,0.00000259,0.00000252,0.00
 000756,0.,-0.00000555,0.00001053,-0.00000728,0.00000572,0.00000063,0.0
 0000440,0.00000040,-0.00008715,0.00023044,0.00005752,0.00008687,-0.000
 04093,-0.00000811,-0.00004682,-0.00075077,0.00037747,0.00009255,0.0003
 0792,-0.00046092,-0.00114538,0.00258893,0.00020803,0.01495226,0.000138
 56,0.02788367,-0.00037987,-0.00567953,0.00144431,0.00007634,-0.0000811
 3,-0.00016014,0.00092051,0.00018450,0.00169273,-0.00025820,0.00010974,
 0.00009129,0.00134625,0.00142238,0.00000405,-0.00062315,-0.00017529,-0
 .00028955,-0.00013012,-0.00001300,-0.00007537,0.00018339,0.00004784,-0
 .00030916,-0.00617349,-0.04726018,-0.01074588,-0.01121931,-0.00058036,
 -0.01795723,0.00614173,0.05074410,0.00000155,0.00000363,0.00000414,-0.
 00000432,0.00001914,0.00000431,0.00000220,-0.00006727,-0.00000298,0.00
 000114,0.00001379,-0.00000367,0.00000770,0.00000028,0.00000448,0.00000
 208,-0.00001660,0.00000101,-0.00000261,0.00000181,0.00000021,-0.000005
 03,-0.00000325,-0.00000149,-0.00000742,-0.00001200,-0.00000788,-0.0000
 0190,-0.00000067,-0.00000222,-0.00008636,0.00013881,0.00009660,-0.0000
 3093,0.00001259,-0.00002468,0.00014025,0.00013890,-0.00000822,0.000018
 01,-0.00009464,0.00031463,0.00080710,-0.00082755,0.00138506,-0.0064881
 6,-0.00226925,-0.01431114,0.00075293,0.00382063,-0.00026930,-0.0000402
 7,-0.00012753,0.00012778,-0.00073993,-0.00011259,-0.00073718,0.0000988
 5,-0.00006291,0.00048045,-0.00062621,-0.00108628,0.00029776,0.00076488
 ,0.00047595,0.00054352,-0.00003726,0.00011038,-0.00007609,0.00011079,0
 .00003946,0.00040619,-0.10855750,-0.00735926,-0.25213204,-0.00862361,0
 .00001277,-0.01539599,0.11996725,0.00735510,0.27393333,0.00000524,-0.0
 0000145,-0.00000189,0.00000571,-0.00002610,0.00000511,-0.00002001,0.00
 007374,-0.00001860,-0.00000905,-0.00001440,0.00000086,0.00001085,0.000
 01113,0.00000249,-0.00000331,0.00000934,-0.00000456,0.00000010,-0.0000
 0374,-0.00000199,-0.00000408,0.00000080,-0.00000589,-0.00001055,0.0000
 0837,-0.00000195,-0.00000221,0.00000004,0.00000028,0.00011933,-0.00017
 528,-0.00010388,-0.00002919,-0.00006846,0.00000284,0.00010460,0.000015
 22,0.00005285,0.00015327,0.00013193,-0.00017050,0.00123181,0.00016233,
 -0.00048704,-0.00155182,0.00111384,0.00000513,0.00049297,0.00055031,-0
 .00037837,0.00058318,0.00013624,0.00020624,0.00027276,-0.00001078,0.00
 001367,-0.00001821,-0.00011620,-0.00004936,0.00111785,-0.00079396,0.00
 049751,0.00017727,0.00027704,0.00003217,0.00021786,0.00016548,-0.00023
 550,-0.00011805,0.00003387,0.00004453,-0.28045677,-0.07840616,0.033913
 29,-0.01286572,-0.00446200,0.00106419,-0.01290236,-0.00375101,0.002582
 67,0.30349204,0.00000550,-0.00000004,-0.00000530,-0.00001269,0.0000220
 5,0.00002606,0.00005206,-0.00015590,-0.00003251,0.00001784,0.00004463,
 0.00001811,-0.00000746,-0.00000034,-0.00000428,0.00000871,-0.00002319,
 -0.00000648,-0.00000280,0.00000085,0.00000119,-0.00000035,-0.00000176,
 -0.00001389,-0.00001049,-0.00001014,-0.00000422,-0.00000319,0.00000471
 ,-0.00000108,-0.00004824,0.00019640,0.00002812,-0.00003498,-0.00012085
 ,-0.00007233,0.00003583,-0.00083463,0.00046207,0.00027003,0.00043639,-
 0.00053033,-0.00020803,0.00283945,0.00038003,-0.02994117,-0.01079751,0
 .00411116,-0.00085031,0.00103211,-0.00152292,0.00075940,0.00027113,0.0
 0042825,0.00021210,0.00000109,-0.00032976,0.00015341,0.00002468,0.0000
 2077,0.00157519,-0.00559515,0.00244947,0.00026133,0.00007482,-0.000086
 59,0.00001909,0.00026038,0.00018749,-0.00189774,-0.00044652,0.00036777
 ,-0.07522355,-0.07179028,0.01114146,0.02045022,0.00758752,-0.00180666,
 -0.00072262,-0.00109995,-0.00011989,0.08515413,0.07804684,0.00000192,-
 0.00000110,-0.00000574,-0.00000892,0.00000237,0.00002021,0.00003412,-0
 .00005823,-0.00002173,-0.00000956,0.00001727,-0.00000286,-0.00000463,0
 .00000214,-0.00000140,0.00000514,-0.00000945,-0.00000436,-0.00000031,-
 0.00000056,0.00000148,0.00000254,-0.00000060,-0.00000640,0.00000674,-0
 .00000336,0.00000220,0.00000083,0.00000288,0.00000009,-0.00000060,0.00
 006742,0.00003520,0.00000015,-0.00008617,-0.00000778,-0.00004102,-0.00
 012984,-0.00001696,-0.00008338,0.00006042,-0.00008791,-0.00043136,-0.0
 0109514,0.00003495,0.01414764,0.00327323,-0.00334960,0.00119623,-0.000
 30374,0.00048639,-0.00063662,0.00035045,-0.00023142,-0.00022820,-0.000
 15982,0.00015007,0.00009107,0.00007226,-0.00012222,-0.00064744,0.00261
 757,-0.00107901,0.00027044,0.00018471,0.00024022,-0.00039374,-0.000010
 20,0.00011124,0.00089632,0.00043834,0.00048934,0.03236667,0.01176057,-
 0.05253641,0.01757368,0.00717999,-0.00286016,-0.02714174,-0.00909677,0
 .00536895,-0.03695949,-0.01509261,0.05338989,0.00198931,0.00335348,0.0
 0105049,0.00311985,0.00081459,0.00172016,0.00026983,-0.00048929,-0.001
 01039,0.00253182,-0.00141361,0.00393477,-0.00466043,0.02185394,0.00514
 128,-0.03859892,0.03819261,0.01589412,-0.00153885,-0.00090489,-0.00139
 291,0.00013083,0.00019955,0.00019094,0.00007154,0.00071830,0.00001128,
 -0.00159856,-0.00046472,-0.00152787,-0.00116720,0.00122801,0.00056358,
 -0.00002997,-0.00002693,0.00008124,0.00063896,-0.00093124,-0.00115040,
 -0.00031423,0.00016409,0.00051832,-0.00028178,0.00094830,0.00021686,0.
 00023922,-0.00031361,-0.00027573,-0.00004524,0.00004477,0.00005787,0.0
 0000517,-0.00000911,-0.00001424,0.00000492,-0.00001757,-0.00004470,-0.
 00000714,0.00003112,0.00003182,-0.00003031,0.00003629,0.00005317,0.000
 01459,-0.00000754,-0.00000746,-0.00003102,0.00002262,0.00001637,0.0000
 3279,-0.00000884,-0.00002459,-0.00002808,0.00001978,0.00004024,-0.0000
 1244,0.00002806,0.00000942,0.00000679,-0.00001205,-0.00000586,0.000006
 50,-0.00001119,-0.00000650,0.03928207,0.01589107,-0.03839260,-0.010486
 85,-0.00166282,0.00030711,0.00496612,-0.00053839,0.00202621,-0.0001059
 5,0.00134614,0.00232986,-0.00164223,0.00919004,-0.02178319,-0.00554462
 ,0.03823501,-0.13127459,-0.02055114,-0.00048512,0.00094059,-0.00069336
 ,0.00067854,-0.00146654,-0.00046357,0.00013175,-0.00082804,0.00025600,
 -0.00088047,0.00105445,-0.00000863,0.00203187,-0.00351226,-0.00245757,
 0.00002500,0.00017693,-0.00012729,-0.00226569,0.00207538,0.00321124,0.
 00080595,-0.00004753,-0.00149674,0.00091359,-0.00238364,-0.00057843,-0
 .00059350,0.00081008,0.00074595,0.00010986,-0.00010255,-0.00013308,-0.
 00000597,0.00002725,0.00003745,-0.00001580,0.00004129,0.00010462,0.000
 01586,-0.00007629,-0.00008078,0.00009191,-0.00011039,-0.00014507,-0.00
 003512,0.00001970,0.00002359,0.00008520,-0.00006088,-0.00004637,-0.000
 09218,0.00002395,0.00006407,0.00006974,-0.00005351,-0.00010681,0.00003
 224,-0.00007462,-0.00002697,-0.00001953,0.00003120,0.00001644,-0.00001
 428,0.00003320,0.00001797,-0.06304491,0.19026944,-0.00481379,0.0131976
 9,0.00629926,0.00287607,0.00029900,-0.00133744,-0.00098650,-0.00020213
 ,0.00157115,0.00264087,0.00357620,-0.00239896,0.01106624,-0.02946648,-
 0.00366040,0.01587719,-0.02048587,-0.04114809,-0.00158843,0.00010083,0
 .00045380,-0.00003298,0.00043981,0.00013768,0.00028560,-0.00085049,0.0
 0011395,-0.00133331,-0.00079644,0.00036936,0.00018750,-0.00094202,-0.0
 0047872,0.00005700,-0.00002839,-0.00008763,-0.00052785,0.00069455,0.00
 047029,0.00021922,-0.00028726,-0.00027831,0.00023326,-0.00064387,-0.00
 007073,-0.00014474,0.00022070,0.00018616,0.00002838,-0.00002254,-0.000
 03401,-0.00000270,0.00000662,0.00000957,-0.00000395,0.00001088,0.00002
 762,0.00000468,-0.00002012,-0.00001955,0.00002646,-0.00002933,-0.00004
 185,-0.00000804,0.00000501,0.00000696,0.00002139,-0.00001673,-0.000011
 29,-0.00002710,0.00000553,0.00001883,0.00001662,-0.00001262,-0.0000274
 3,0.00000769,-0.00001866,-0.00000582,-0.00000268,0.00000720,0.00000447
 ,-0.00000479,0.00000692,0.00000374,-0.02407129,0.03525200,0.03992739\\
 -0.00000031,-0.00000119,-0.00000040,-0.00000009,0.00000153,0.00000476,
 0.00001064,-0.00001005,0.00000272,0.00000095,-0.00000024,0.00000510,-0
 .00000114,-0.00000511,0.00000149,-0.00000100,-0.00000768,0.00000681,-0
 .00000137,-0.00000452,0.00000453,-0.00000487,-0.00000405,0.00000054,-0
 .00000480,-0.00000004,-0.00000358,-0.00000170,0.00000103,0.00000335,-0
 .00001574,0.00000866,0.00000726,0.00000423,-0.00000177,0.00000118,0.00
 000569,-0.00000723,-0.00000487,0.00000116,0.00000816,-0.00000066,-0.00
 000730,0.00001122,0.00000380,0.00001340,-0.00000692,-0.00001809,-0.000
 00422,-0.00000457,0.00000184,0.00000332,0.00000301,-0.00000177,0.00000
 252,0.00000320,-0.00000041,0.00000023,0.00000450,-0.00000369,-0.000007
 55,-0.00000052,0.00000533,0.00000011,0.00000262,-0.00000471,-0.0000003
 3,0.00000133,-0.00000257,0.00000117,0.00000161,-0.00000180,0.00000296,
 0.00000255,0.00000066,0.00000184,0.00000200,-0.00000341,0.00000105,-0.
 00000115,-0.00000428,0.00000408,0.00000145,-0.00000442,-0.00000292,0.0
 0000216,0.00000529\\\@


 TO BEHOLD HARMS OF OUR OWN HANDS DOING,
 WHERE NONE BESIDE US WROUGHT,
 CAUSES SHARP RUING...

                                         SOPHOCLES
 Job cpu time:       0 days  3 hours 13 minutes 11.6 seconds.
 File lengths (MBytes):  RWF=    482 Int=      0 D2E=      0 Chk=     14 Scr=      1
 Normal termination of Gaussian 09 at Tue Apr 23 14:33:25 2024.
