	You are loading a legacy vmd module, please load an up to date module instead.


	 module load container_env vmd

	Please run vmd command with crun.vmd prepend to it:
	
	 crun.vmd vmd

	 
module: Command not found.
module: Command not found.
 Entering Gaussian System, Link 0=g09
 Initial command:
 /opt/gaussian/g09/l1.exe "/tmp/G09-Table3_4_fixed.com.o10670097.tmp/Gau-1889684.inp" -scrdir="/tmp/G09-Table3_4_fixed.com.o10670097.tmp/"
 Entering Link 1 = /opt/gaussian/g09/l1.exe PID=   1889685.
  
 Copyright (c) 1988,1990,1992,1993,1995,1998,2003,2009,2013,
            Gaussian, Inc.  All Rights Reserved.
  
 This is part of the Gaussian(R) 09 program.  It is based on
 the Gaussian(R) 03 system (copyright 2003, Gaussian, Inc.),
 the Gaussian(R) 98 system (copyright 1998, Gaussian, Inc.),
 the Gaussian(R) 94 system (copyright 1995, Gaussian, Inc.),
 the Gaussian 92(TM) system (copyright 1992, Gaussian, Inc.),
 the Gaussian 90(TM) system (copyright 1990, Gaussian, Inc.),
 the Gaussian 88(TM) system (copyright 1988, Gaussian, Inc.),
 the Gaussian 86(TM) system (copyright 1986, Carnegie Mellon
 University), and the Gaussian 82(TM) system (copyright 1983,
 Carnegie Mellon University). Gaussian is a federally registered
 trademark of Gaussian, Inc.
  
 This software contains proprietary and confidential information,
 including trade secrets, belonging to Gaussian, Inc.
  
 This software is provided under written license and may be
 used, copied, transmitted, or stored only in accord with that
 written license.
  
 The following legend is applicable only to US Government
 contracts under FAR:
  
                    RESTRICTED RIGHTS LEGEND
  
 Use, reproduction and disclosure by the US Government is
 subject to restrictions as set forth in subparagraphs (a)
 and (c) of the Commercial Computer Software - Restricted
 Rights clause in FAR 52.227-19.
  
 Gaussian, Inc.
 340 Quinnipiac St., Bldg. 40, Wallingford CT 06492
  
  
 ---------------------------------------------------------------
 Warning -- This program may not be used in any manner that
 competes with the business of Gaussian, Inc. or will provide
 assistance to any competitor of Gaussian, Inc.  The licensee
 of this program is prohibited from giving any competitor of
 Gaussian, Inc. access to this program.  By using this program,
 the user acknowledges that Gaussian, Inc. is engaged in the
 business of creating and licensing software in the field of
 computational chemistry and represents and warrants to the
 licensee that it is not a competitor of Gaussian, Inc. and that
 it will not use this program in any manner prohibited above.
 ---------------------------------------------------------------
  

 Cite this work as:
 Gaussian 09, Revision D.01,
 M. J. Frisch, G. W. Trucks, H. B. Schlegel, G. E. Scuseria, 
 M. A. Robb, J. R. Cheeseman, G. Scalmani, V. Barone, B. Mennucci, 
 G. A. Petersson, H. Nakatsuji, M. Caricato, X. Li, H. P. Hratchian, 
 A. F. Izmaylov, J. Bloino, G. Zheng, J. L. Sonnenberg, M. Hada, 
 M. Ehara, K. Toyota, R. Fukuda, J. Hasegawa, M. Ishida, T. Nakajima, 
 Y. Honda, O. Kitao, H. Nakai, T. Vreven, J. A. Montgomery, Jr., 
 J. E. Peralta, F. Ogliaro, M. Bearpark, J. J. Heyd, E. Brothers, 
 K. N. Kudin, V. N. Staroverov, T. Keith, R. Kobayashi, J. Normand, 
 K. Raghavachari, A. Rendell, J. C. Burant, S. S. Iyengar, J. Tomasi, 
 M. Cossi, N. Rega, J. M. Millam, M. Klene, J. E. Knox, J. B. Cross, 
 V. Bakken, C. Adamo, J. Jaramillo, R. Gomperts, R. E. Stratmann, 
 O. Yazyev, A. J. Austin, R. Cammi, C. Pomelli, J. W. Ochterski, 
 R. L. Martin, K. Morokuma, V. G. Zakrzewski, G. A. Voth, 
 P. Salvador, J. J. Dannenberg, S. Dapprich, A. D. Daniels, 
 O. Farkas, J. B. Foresman, J. V. Ortiz, J. Cioslowski, 
 and D. J. Fox, Gaussian, Inc., Wallingford CT, 2013.
 
 ******************************************
 Gaussian 09:  ES64L-G09RevD.01 24-Apr-2013
                26-Aug-2024 
 ******************************************
 %mem=100MW
 %nprocshared=20
 Will use up to   20 processors via shared memory.
 %Chk=Table3_4_fixed.chk
 ----------------------------------------------------------------------
 # opt=rcfc freq b3lyp/6-311+g(d,p) geom=allcheck guess=read pop=(hirsh
 feld,mbs,npa)
 ----------------------------------------------------------------------
 1/10=5,14=-1,18=20,19=15,26=3,29=7,38=1/1,3;
 2/9=110,12=2,40=1/2;
 3/5=4,6=6,7=111,11=2,14=-4,16=1,25=1,30=1,71=1,74=-5,116=-2/1,2,3;
 4/5=1/1;
 5/5=2,38=6/2;
 6/7=2,8=2,9=2,10=2,27=100,28=1,40=-1,79=1/1,7;
 7//1,2,3,16;
 1/14=-1,18=20,19=15,26=3/3(2);
 2/9=110/2;
 99//99;
 2/9=110/2;
 3/5=4,6=6,7=111,11=2,14=-2,16=1,25=1,30=1,71=1,74=-5/1,2,3;
 4/5=5,16=3,69=1/1;
 5/5=2,38=5/2;
 7//1,2,3,16;
 1/14=-1,18=20,19=15,26=3/3(-5);
 2/9=110/2;
 6/7=2,8=2,9=2,10=2,19=2,27=100,28=1,40=-1,79=1/1,7;
 99/9=1/99;
 Structure from the checkpoint file:  "Table3_4_fixed.chk"
 --------
 Table3_4
 --------
 Charge =  0 Multiplicity = 1
 Redundant internal coordinates found in file.
 C,0,1.137652,0.354093,-0.00331
 C,0,1.118242,1.745957,0.011216
 C,0,-0.108699,2.406228,0.002823
 C,0,-1.299869,1.686773,-0.018831
 C,0,-1.258259,0.293011,-0.034616
 C,0,-0.039186,-0.3859,-0.02508
 H,0,2.044964,2.304578,0.026035
 H,0,-0.131786,3.489464,0.010705
 H,0,-2.251847,2.201327,-0.031771
 H,0,-0.010676,-1.466795,-0.042104
 C,0,-2.542532,-0.494104,-0.003505
 F,0,-3.556639,0.164383,-0.607076
 F,0,-2.944892,-0.744364,1.267839
 F,0,-2.423519,-1.6932,-0.614248
 Br,0,2.81802,-0.563037,0.001323
 Recover connectivity data from disk.

 GradGradGradGradGradGradGradGradGradGradGradGradGradGradGradGradGradGrad
 Berny optimization.
 Initialization pass.
 Cartesian force constants read from checkpoint file:
 "Table3_4_fixed.chk"
 FormGI is forming the generalized inverse of G from B-inverse, IUseBI=4.
                           ----------------------------
                           !    Initial Parameters    !
                           ! (Angstroms and Degrees)  !
 --------------------------                            --------------------------
 ! Name  Definition              Value          Derivative Info.                !
 --------------------------------------------------------------------------------
 ! R1    R(1,2)                  1.3921         D2E/DX2 =    0.3888             !
 ! R2    R(1,6)                  1.3903         D2E/DX2 =    0.3927             !
 ! R3    R(1,15)                 1.9144         D2E/DX2 =    0.1891             !
 ! R4    R(2,3)                  1.3933         D2E/DX2 =    0.3921             !
 ! R5    R(2,7)                  1.0822         D2E/DX2 =    0.3614             !
 ! R6    R(3,4)                  1.3918         D2E/DX2 =    0.3966             !
 ! R7    R(3,8)                  1.0835         D2E/DX2 =    0.358              !
 ! R8    R(4,5)                  1.3945         D2E/DX2 =    0.3901             !
 ! R9    R(4,9)                  1.0822         D2E/DX2 =    0.3619             !
 ! R10   R(5,6)                  1.3954         D2E/DX2 =    0.3875             !
 ! R11   R(5,11)                 1.5066         D2E/DX2 =    0.3022             !
 ! R12   R(6,10)                 1.0814         D2E/DX2 =    0.3642             !
 ! R13   R(11,12)                1.3514         D2E/DX2 =    0.3627             !
 ! R14   R(11,13)                1.3568         D2E/DX2 =    0.3517             !
 ! R15   R(11,14)                1.3509         D2E/DX2 =    0.3645             !
 ! A1    A(2,1,6)              121.3674         D2E/DX2 =    0.0833             !
 ! A2    A(2,1,15)             119.4208         D2E/DX2 =    0.1142             !
 ! A3    A(6,1,15)             119.2116         D2E/DX2 =    0.1141             !
 ! A4    A(1,2,3)              119.0792         D2E/DX2 =    0.0814             !
 ! A5    A(1,2,7)              120.2868         D2E/DX2 =    0.0813             !
 ! A6    A(3,2,7)              120.6338         D2E/DX2 =    0.0807             !
 ! A7    A(2,3,4)              120.5833         D2E/DX2 =    0.0815             !
 ! A8    A(2,3,8)              119.5033         D2E/DX2 =    0.0816             !
 ! A9    A(4,3,8)              119.9132         D2E/DX2 =    0.0819             !
 ! A10   A(3,4,5)              119.4271         D2E/DX2 =    0.083              !
 ! A11   A(3,4,9)              120.4826         D2E/DX2 =    0.0825             !
 ! A12   A(5,4,9)              120.0882         D2E/DX2 =    0.0825             !
 ! A13   A(4,5,6)              120.8156         D2E/DX2 =    0.0864             !
 ! A14   A(4,5,11)             119.7691         D2E/DX2 =    0.1298             !
 ! A15   A(6,5,11)             119.3657         D2E/DX2 =    0.129              !
 ! A16   A(1,6,5)              118.7271         D2E/DX2 =    0.0817             !
 ! A17   A(1,6,10)             120.6587         D2E/DX2 =    0.082              !
 ! A18   A(5,6,10)             120.6125         D2E/DX2 =    0.082              !
 ! A19   A(5,11,12)            112.0786         D2E/DX2 =    0.2021             !
 ! A20   A(5,11,13)            111.6236         D2E/DX2 =    0.1774             !
 ! A21   A(5,11,14)            112.2898         D2E/DX2 =    0.2014             !
 ! A22   A(12,11,13)           106.609          D2E/DX2 =    0.1396             !
 ! A23   A(12,11,14)           107.2589         D2E/DX2 =    0.1448             !
 ! A24   A(13,11,14)           106.6204         D2E/DX2 =    0.14               !
 ! D1    D(6,1,2,3)             -0.0412         D2E/DX2 =    0.0085             !
 ! D2    D(6,1,2,7)           -179.8732         D2E/DX2 =    0.0081             !
 ! D3    D(15,1,2,3)           179.7689         D2E/DX2 =    0.0085             !
 ! D4    D(15,1,2,7)            -0.0631         D2E/DX2 =    0.0093             !
 ! D5    D(2,1,6,5)              0.1081         D2E/DX2 =    0.0084             !
 ! D6    D(2,1,6,10)           179.6365         D2E/DX2 =    0.008              !
 ! D7    D(15,1,6,5)          -179.7024         D2E/DX2 =    0.0087             !
 ! D8    D(15,1,6,10)           -0.174          D2E/DX2 =    0.0093             !
 ! D9    D(1,2,3,4)              0.0445         D2E/DX2 =    0.0089             !
 ! D10   D(1,2,3,8)           -179.7981         D2E/DX2 =    0.0082             !
 ! D11   D(7,2,3,4)            179.8759         D2E/DX2 =    0.0083             !
 ! D12   D(7,2,3,8)              0.0333         D2E/DX2 =    0.009              !
 ! D13   D(2,3,4,5)             -0.1158         D2E/DX2 =    0.0091             !
 ! D14   D(2,3,4,9)           -179.6038         D2E/DX2 =    0.0083             !
 ! D15   D(8,3,4,5)            179.7262         D2E/DX2 =    0.0084             !
 ! D16   D(8,3,4,9)              0.2382         D2E/DX2 =    0.0089             !
 ! D17   D(3,4,5,6)              0.1852         D2E/DX2 =    0.0075             !
 ! D18   D(3,4,5,11)           177.6079         D2E/DX2 =    0.0071             !
 ! D19   D(9,4,5,6)            179.6752         D2E/DX2 =    0.007              !
 ! D20   D(9,4,5,11)            -2.9021         D2E/DX2 =    0.0071             !
 ! D21   D(4,5,6,1)             -0.1803         D2E/DX2 =    0.0073             !
 ! D22   D(4,5,6,10)          -179.709          D2E/DX2 =    0.0069             !
 ! D23   D(11,5,6,1)          -177.6134         D2E/DX2 =    0.007              !
 ! D24   D(11,5,6,10)            2.858          D2E/DX2 =    0.0071             !
 ! D25   D(4,5,11,12)           30.7942         D2E/DX2 =    0.032              !
 ! D26   D(4,5,11,13)          -88.7173         D2E/DX2 =    0.0315             !
 ! D27   D(4,5,11,14)          151.6113         D2E/DX2 =    0.0318             !
 ! D28   D(6,5,11,12)         -151.7454         D2E/DX2 =    0.0314             !
 ! D29   D(6,5,11,13)           88.743          D2E/DX2 =    0.0313             !
 ! D30   D(6,5,11,14)          -30.9284         D2E/DX2 =    0.0322             !
 --------------------------------------------------------------------------------
 Trust Radius=3.00D-01 FncErr=1.00D-07 GrdErr=1.00D-06
 Number of steps in this run=     79 maximum allowed number of steps=    100.
 GradGradGradGradGradGradGradGradGradGradGradGradGradGradGradGradGradGrad

                          Input orientation:                          
 ---------------------------------------------------------------------
 Center     Atomic      Atomic             Coordinates (Angstroms)
 Number     Number       Type             X           Y           Z
 ---------------------------------------------------------------------
      1          6           0        1.137652    0.354093   -0.003310
      2          6           0        1.118242    1.745957    0.011216
      3          6           0       -0.108699    2.406228    0.002823
      4          6           0       -1.299869    1.686773   -0.018831
      5          6           0       -1.258259    0.293011   -0.034616
      6          6           0       -0.039186   -0.385900   -0.025080
      7          1           0        2.044964    2.304578    0.026035
      8          1           0       -0.131786    3.489464    0.010705
      9          1           0       -2.251847    2.201327   -0.031771
     10          1           0       -0.010676   -1.466795   -0.042104
     11          6           0       -2.542532   -0.494104   -0.003505
     12          9           0       -3.556639    0.164383   -0.607076
     13          9           0       -2.944892   -0.744364    1.267839
     14          9           0       -2.423519   -1.693200   -0.614248
     15         35           0        2.818020   -0.563037    0.001323
 ---------------------------------------------------------------------
                    Distance matrix (angstroms):
                    1          2          3          4          5
     1  C    0.000000
     2  C    1.392075   0.000000
     3  C    2.400976   1.393346   0.000000
     4  C    2.778090   2.419022   1.391751   0.000000
     5  C    2.396894   2.785841   2.405946   1.394472   0.000000
     6  C    1.390328   2.426061   2.793133   2.425971   1.395403
     7  H    2.151387   1.082169   2.156185   3.401706   3.867992
     8  H    3.382635   2.145317   1.083511   2.148252   3.389441
     9  H    3.860283   3.400987   2.153199   1.082218   2.151487
    10  H    2.153090   3.405741   3.874524   3.406986   2.157183
    11  C    3.776664   4.291778   3.786226   2.510114   1.506610
    12  F    4.736760   4.973748   4.157660   2.785088   2.372089
    13  F    4.414702   4.928474   4.423854   3.205004   2.370077
    14  F    4.152902   4.976251   4.748103   3.611278   2.374624
    15  Br   1.914363   2.867193   4.169199   4.692447   4.165352
                    6          7          8          9         10
     6  C    0.000000
     7  H    3.403669   0.000000
     8  H    3.876635   2.478393   0.000000
     9  H    3.404359   4.298440   2.481080   0.000000
    10  H    1.081405   4.295760   4.958020   4.298613   0.000000
    11  C    2.505776   5.373882   4.656255   2.711207   2.712547
    12  F    3.607493   6.029861   4.813256   2.486483   3.943829
    13  F    3.200510   5.978025   5.236339   3.293386   3.293551
    14  F    2.782301   6.029887   5.701106   3.941585   2.490064
    15  Br   2.862813   2.970091   5.012405   5.774630   2.969880
                   11         12         13         14         15
    11  C    0.000000
    12  F    1.351413   0.000000
    13  F    1.356775   2.171488   0.000000
    14  F    1.350926   2.175920   2.171260   0.000000
    15  Br   5.360997   6.444809   5.903228   5.397215   0.000000
 Stoichiometry    C7H4BrF3
 Framework group  C1[X(C7H4BrF3)]
 Deg. of freedom    39
 Full point group                 C1      NOp   1
 Largest Abelian subgroup         C1      NOp   1
 Largest concise Abelian subgroup C1      NOp   1
                         Standard orientation:                         
 ---------------------------------------------------------------------
 Center     Atomic      Atomic             Coordinates (Angstroms)
 Number     Number       Type             X           Y           Z
 ---------------------------------------------------------------------
      1          6           0        1.137652    0.354093   -0.003310
      2          6           0        1.118242    1.745957    0.011216
      3          6           0       -0.108699    2.406228    0.002823
      4          6           0       -1.299869    1.686773   -0.018831
      5          6           0       -1.258259    0.293011   -0.034616
      6          6           0       -0.039186   -0.385900   -0.025080
      7          1           0        2.044964    2.304578    0.026035
      8          1           0       -0.131786    3.489464    0.010705
      9          1           0       -2.251847    2.201327   -0.031771
     10          1           0       -0.010676   -1.466795   -0.042104
     11          6           0       -2.542532   -0.494104   -0.003505
     12          9           0       -3.556639    0.164383   -0.607076
     13          9           0       -2.944892   -0.744364    1.267839
     14          9           0       -2.423519   -1.693200   -0.614248
     15         35           0        2.818020   -0.563037    0.001323
 ---------------------------------------------------------------------
 Rotational constants (GHZ):      1.6488477      0.3760747      0.3237843
 Standard basis: 6-311+G(d,p) (5D, 7F)
 There are   305 symmetry adapted cartesian basis functions of A   symmetry.
 There are   292 symmetry adapted basis functions of A   symmetry.
   292 basis functions,   486 primitive gaussians,   305 cartesian basis functions
    54 alpha electrons       54 beta electrons
       nuclear repulsion energy       852.0015885537 Hartrees.
 NAtoms=   15 NActive=   15 NUniq=   15 SFac= 1.00D+00 NAtFMM=   60 NAOKFM=F Big=F
 Integral buffers will be    131072 words long.
 Raffenetti 2 integral format.
 Two-electron integral symmetry is turned on.
 One-electron integrals computed using PRISM.
 NBasis=   292 RedAO= T EigKep=  2.20D-06  NBF=   292
 NBsUse=   292 1.00D-06 EigRej= -1.00D+00 NBFU=   292
 Initial guess from the checkpoint file:  "Table3_4_fixed.chk"
 B after Tr=     0.000000    0.000000    0.000000
         Rot=    1.000000    0.000000    0.000000    0.000000 Ang=   0.00 deg.
 Requested convergence on RMS density matrix=1.00D-08 within 128 cycles.
 Requested convergence on MAX density matrix=1.00D-06.
 Requested convergence on             energy=1.00D-06.
 No special actions if energy rises.
 SCF Done:  E(RB3LYP) =  -3143.00148220     A.U. after    1 cycles
            NFock=  1  Conv=0.14D-08     -V/T= 2.0016

 **********************************************************************

            Population analysis using the SCF density.

 **********************************************************************

 Orbital symmetries:
       Occupied  (A) (A) (A) (A) (A) (A) (A) (A) (A) (A) (A) (A)
                 (A) (A) (A) (A) (A) (A) (A) (A) (A) (A) (A) (A)
                 (A) (A) (A) (A) (A) (A) (A) (A) (A) (A) (A) (A)
                 (A) (A) (A) (A) (A) (A) (A) (A) (A) (A) (A) (A)
                 (A) (A) (A) (A) (A) (A)
       Virtual   (A) (A) (A) (A) (A) (A) (A) (A) (A) (A) (A) (A)
                 (A) (A) (A) (A) (A) (A) (A) (A) (A) (A) (A) (A)
                 (A) (A) (A) (A) (A) (A) (A) (A) (A) (A) (A) (A)
                 (A) (A) (A) (A) (A) (A) (A) (A) (A) (A) (A) (A)
                 (A) (A) (A) (A) (A) (A) (A) (A) (A) (A) (A) (A)
                 (A) (A) (A) (A) (A) (A) (A) (A) (A) (A) (A) (A)
                 (A) (A) (A) (A) (A) (A) (A) (A) (A) (A) (A) (A)
                 (A) (A) (A) (A) (A) (A) (A) (A) (A) (A) (A) (A)
                 (A) (A) (A) (A) (A) (A) (A) (A) (A) (A) (A) (A)
                 (A) (A) (A) (A) (A) (A) (A) (A) (A) (A) (A) (A)
                 (A) (A) (A) (A) (A) (A) (A) (A) (A) (A) (A) (A)
                 (A) (A) (A) (A) (A) (A) (A) (A) (A) (A) (A) (A)
                 (A) (A) (A) (A) (A) (A) (A) (A) (A) (A) (A) (A)
                 (A) (A) (A) (A) (A) (A) (A) (A) (A) (A) (A) (A)
                 (A) (A) (A) (A) (A) (A) (A) (A) (A) (A) (A) (A)
                 (A) (A) (A) (A) (A) (A) (A) (A) (A) (A) (A) (A)
                 (A) (A) (A) (A) (A) (A) (A) (A) (A) (A) (A) (A)
                 (A) (A) (A) (A) (A) (A) (A) (A) (A) (A) (A) (A)
                 (A) (A) (A) (A) (A) (A) (A) (A) (A) (A) (A) (A)
                 (A) (A) (A) (A) (A) (A) (A) (A) (A) (A)
 The electronic state is 1-A.
 Alpha  occ. eigenvalues -- -482.84640 -62.49923 -56.31964 -56.31570 -56.31557
 Alpha  occ. eigenvalues --  -24.72476 -24.72475 -24.72000 -10.44337 -10.25903
 Alpha  occ. eigenvalues --  -10.22945 -10.21892 -10.21550 -10.21399 -10.21288
 Alpha  occ. eigenvalues --   -8.70891  -6.54048  -6.52734  -6.52704  -2.65137
 Alpha  occ. eigenvalues --   -2.64763  -2.64743  -2.63698  -2.63697  -1.32994
 Alpha  occ. eigenvalues --   -1.24370  -1.23854  -0.91118  -0.83874  -0.80750
 Alpha  occ. eigenvalues --   -0.75975  -0.72569  -0.65618  -0.64307  -0.60779
 Alpha  occ. eigenvalues --   -0.60463  -0.58092  -0.53474  -0.50450  -0.48791
 Alpha  occ. eigenvalues --   -0.48291  -0.47639  -0.45405  -0.44969  -0.43989
 Alpha  occ. eigenvalues --   -0.43303  -0.42606  -0.41576  -0.38966  -0.38334
 Alpha  occ. eigenvalues --   -0.33931  -0.30916  -0.29739  -0.27169
 Alpha virt. eigenvalues --   -0.06112  -0.05028  -0.03149  -0.00563   0.01177
 Alpha virt. eigenvalues --    0.01844   0.03611   0.03879   0.04055   0.04365
 Alpha virt. eigenvalues --    0.05522   0.06684   0.07229   0.07316   0.08586
 Alpha virt. eigenvalues --    0.08812   0.09750   0.10387   0.11266   0.11306
 Alpha virt. eigenvalues --    0.11737   0.12425   0.13223   0.14172   0.14334
 Alpha virt. eigenvalues --    0.15175   0.15480   0.16033   0.16784   0.17260
 Alpha virt. eigenvalues --    0.17889   0.19060   0.19685   0.19991   0.20339
 Alpha virt. eigenvalues --    0.20875   0.21565   0.21807   0.23146   0.24287
 Alpha virt. eigenvalues --    0.24535   0.25782   0.26186   0.26320   0.26531
 Alpha virt. eigenvalues --    0.26999   0.28929   0.30854   0.31877   0.33380
 Alpha virt. eigenvalues --    0.33836   0.34538   0.35454   0.36051   0.38802
 Alpha virt. eigenvalues --    0.39191   0.41244   0.41832   0.42976   0.43187
 Alpha virt. eigenvalues --    0.44400   0.45761   0.46710   0.47315   0.48825
 Alpha virt. eigenvalues --    0.50637   0.51852   0.51977   0.52370   0.54117
 Alpha virt. eigenvalues --    0.56821   0.58046   0.58823   0.59318   0.59943
 Alpha virt. eigenvalues --    0.61283   0.62369   0.63237   0.64438   0.65211
 Alpha virt. eigenvalues --    0.67100   0.67693   0.69249   0.71625   0.71791
 Alpha virt. eigenvalues --    0.73025   0.75326   0.75780   0.77285   0.81086
 Alpha virt. eigenvalues --    0.81351   0.83070   0.85041   0.85665   0.89541
 Alpha virt. eigenvalues --    0.90295   0.91282   0.96201   0.99025   0.99681
 Alpha virt. eigenvalues --    1.00831   1.02478   1.05697   1.07289   1.08599
 Alpha virt. eigenvalues --    1.09554   1.12038   1.22537   1.27273   1.31308
 Alpha virt. eigenvalues --    1.34704   1.36661   1.38322   1.40725   1.41168
 Alpha virt. eigenvalues --    1.42399   1.44750   1.47230   1.47464   1.49287
 Alpha virt. eigenvalues --    1.50132   1.50943   1.51861   1.53671   1.54273
 Alpha virt. eigenvalues --    1.54658   1.59041   1.62547   1.64419   1.66730
 Alpha virt. eigenvalues --    1.68461   1.71312   1.73066   1.77172   1.79771
 Alpha virt. eigenvalues --    1.80997   1.87971   1.88749   1.90358   1.92093
 Alpha virt. eigenvalues --    1.92777   1.95036   1.96125   1.98901   1.99047
 Alpha virt. eigenvalues --    2.01389   2.02310   2.06195   2.06573   2.10492
 Alpha virt. eigenvalues --    2.13354   2.16243   2.24573   2.26348   2.31180
 Alpha virt. eigenvalues --    2.33056   2.36546   2.38005   2.47919   2.54291
 Alpha virt. eigenvalues --    2.62110   2.62844   2.67246   2.69246   2.71127
 Alpha virt. eigenvalues --    2.72700   2.75266   2.75816   2.76673   2.77089
 Alpha virt. eigenvalues --    2.81782   2.83957   2.86850   2.90928   2.96678
 Alpha virt. eigenvalues --    3.01664   3.05476   3.08904   3.13348   3.31407
 Alpha virt. eigenvalues --    3.33204   3.46535   3.47998   3.57883   3.68903
 Alpha virt. eigenvalues --    3.70847   3.74083   3.74803   3.75781   3.77055
 Alpha virt. eigenvalues --    3.77301   3.78139   3.91125   3.91773   3.93756
 Alpha virt. eigenvalues --    3.99346   4.08592   4.10011   4.12727   4.13337
 Alpha virt. eigenvalues --    4.16534   4.18160   4.19178   4.20594   4.37002
 Alpha virt. eigenvalues --    4.55696   4.68365   4.81352   4.90043   4.92614
 Alpha virt. eigenvalues --    6.30422   6.32207   6.35474   6.37564   6.37744
 Alpha virt. eigenvalues --    6.39978   6.45093   6.72109   6.73066   6.74148
 Alpha virt. eigenvalues --    7.54465   7.67085   7.73136  23.45130  23.57097
 Alpha virt. eigenvalues --   23.88238  23.91938  24.03831  24.05372  24.15219
 Alpha virt. eigenvalues --   47.99354  66.74471  66.75604  66.80678 289.74181
 Alpha virt. eigenvalues --  289.86999 289.954561020.80149
          Condensed to atoms (all electrons):
               1          2          3          4          5          6
     1  C   10.343583   0.451004   0.575038  -1.087948  -0.176986  -3.225943
     2  C    0.451004   7.426785   0.165673   0.238397  -1.700230  -1.265974
     3  C    0.575038   0.165673   8.663319  -0.693882  -0.651925  -1.648162
     4  C   -1.087948   0.238397  -0.693882  21.353855  -1.997642 -11.873496
     5  C   -0.176986  -1.700230  -0.651925  -1.997642  17.169452  -4.631640
     6  C   -3.225943  -1.265974  -1.648162 -11.873496  -4.631640  27.333230
     7  H   -0.041339   0.414914  -0.015848  -0.020050   0.027666  -0.010632
     8  H   -0.028368   0.023972   0.333999   0.000145   0.005922   0.000296
     9  H   -0.010310   0.001726  -0.017610   0.355440  -0.038871   0.003351
    10  H   -0.083257   0.016084  -0.018046   0.010777  -0.024222   0.388752
    11  C   -1.013402   0.341926  -0.640391   0.087530  -1.924322   1.160702
    12  F    0.038077  -0.004766   0.094357  -0.089230  -0.068011  -0.013378
    13  F    0.008884  -0.015795  -0.002371  -0.173865   0.404320  -0.218983
    14  F    0.129154   0.000477   0.023300   0.012130  -0.080423  -0.135502
    15  Br  -0.208287   0.112300   0.015940   0.052610  -0.086720   0.275069
               7          8          9         10         11         12
     1  C   -0.041339  -0.028368  -0.010310  -0.083257  -1.013402   0.038077
     2  C    0.414914   0.023972   0.001726   0.016084   0.341926  -0.004766
     3  C   -0.015848   0.333999  -0.017610  -0.018046  -0.640391   0.094357
     4  C   -0.020050   0.000145   0.355440   0.010777   0.087530  -0.089230
     5  C    0.027666   0.005922  -0.038871  -0.024222  -1.924322  -0.068011
     6  C   -0.010632   0.000296   0.003351   0.388752   1.160702  -0.013378
     7  H    0.506085  -0.007467  -0.000169  -0.000125   0.002826   0.000001
     8  H   -0.007467   0.522424  -0.006938   0.000051   0.013675   0.000066
     9  H   -0.000169  -0.006938   0.503995  -0.000180   0.056364   0.004804
    10  H   -0.000125   0.000051  -0.000180   0.485644   0.066415   0.000615
    11  C    0.002826   0.013675   0.056364   0.066415   6.839909   0.202394
    12  F    0.000001   0.000066   0.004804   0.000615   0.202394   9.027008
    13  F   -0.000002   0.000028  -0.000040  -0.000287   0.185409  -0.047495
    14  F   -0.000001   0.000021   0.000543   0.006424   0.212053  -0.025299
    15  Br  -0.009392  -0.000558  -0.000468  -0.011291  -0.013021  -0.000065
              13         14         15
     1  C    0.008884   0.129154  -0.208287
     2  C   -0.015795   0.000477   0.112300
     3  C   -0.002371   0.023300   0.015940
     4  C   -0.173865   0.012130   0.052610
     5  C    0.404320  -0.080423  -0.086720
     6  C   -0.218983  -0.135502   0.275069
     7  H   -0.000002  -0.000001  -0.009392
     8  H    0.000028   0.000021  -0.000558
     9  H   -0.000040   0.000543  -0.000468
    10  H   -0.000287   0.006424  -0.011291
    11  C    0.185409   0.212053  -0.013021
    12  F   -0.047495  -0.025299  -0.000065
    13  F    8.978262  -0.047205  -0.000171
    14  F   -0.047205   9.021728   0.000067
    15  Br  -0.000171   0.000067  34.997350
 Mulliken charges:
               1
     1  C    0.330099
     2  C   -0.206493
     3  C   -0.183390
     4  C   -0.174771
     5  C   -0.226369
     6  C   -0.137690
     7  H    0.153535
     8  H    0.142733
     9  H    0.148362
    10  H    0.162647
    11  C    0.421934
    12  F   -0.119078
    13  F   -0.070688
    14  F   -0.117466
    15  Br  -0.123365
 Sum of Mulliken charges =   0.00000
 Mulliken charges with hydrogens summed into heavy atoms:
               1
     1  C    0.330099
     2  C   -0.052958
     3  C   -0.040657
     4  C   -0.026409
     5  C   -0.226369
     6  C    0.024957
    11  C    0.421934
    12  F   -0.119078
    13  F   -0.070688
    14  F   -0.117466
    15  Br  -0.123365
 Electronic spatial extent (au):  <R**2>=           2908.0834
 Charge=              0.0000 electrons
 Dipole moment (field-independent basis, Debye):
    X=              1.1847    Y=              2.3575    Z=             -0.0720  Tot=              2.6394
 Quadrupole moment (field-independent basis, Debye-Ang):
   XX=            -80.6400   YY=            -67.3530   ZZ=            -78.0678
   XY=             -2.1280   XZ=              0.2272   YZ=              0.0971
 Traceless Quadrupole moment (field-independent basis, Debye-Ang):
   XX=             -5.2864   YY=              8.0006   ZZ=             -2.7142
   XY=             -2.1280   XZ=              0.2272   YZ=              0.0971
 Octapole moment (field-independent basis, Debye-Ang**2):
  XXX=             57.4648  YYY=            -12.2500  ZZZ=             -1.0687  XYY=             13.9373
  XXY=             -2.2769  XXZ=              0.1695  XZZ=             12.7344  YZZ=            -14.0873
  YYZ=              1.1616  XYZ=             -0.4909
 Hexadecapole moment (field-independent basis, Debye-Ang**3):
 XXXX=          -2270.1368 YYYY=           -627.5037 ZZZZ=           -153.9171 XXXY=            -43.6223
 XXXZ=             -2.2462 YYYX=            -20.3269 YYYZ=             -1.2504 ZZZX=              3.6354
 ZZZY=              0.9333 XXYY=           -467.4162 XXZZ=           -415.5340 YYZZ=           -152.9284
 XXYZ=              3.0498 YYXZ=             -1.6650 ZZXY=             -5.6709
 N-N= 8.520015885537D+02 E-N=-9.195646117497D+03  KE= 3.137996839947D+03
 There are a total of      127394 grid points.
 ElSum from          density=      108.0002281116
 ElSum from atomic densities=      108.0000726936

 Hirshfeld populations at iteration   1 (CX, CA, CB, DipXYZ):
               1          2          3          4          5          6
     1  C    0.000001   2.985003   2.985003   0.015557  -0.008992   0.000065
     2  C    0.000000   3.008812   3.008812   0.070909   0.031891   0.001042
     3  C    0.000000   3.014564   3.014564  -0.000484   0.070342   0.000524
     4  C    0.000000   3.017925   3.017925  -0.045885   0.043187   0.002649
     5  C    0.000000   3.011263   3.011263  -0.040199  -0.027734   0.001430
     6  C    0.000000   3.011062   3.011062   0.026709  -0.065159   0.002526
     7  H    0.000008   0.466542   0.466542   0.140006   0.089972   0.002337
     8  H    0.000001   0.470310   0.470310  -0.003736   0.167349   0.001261
     9  H    0.000001   0.471500   0.471500  -0.133099   0.098032   0.001167
    10  H    0.000007   0.466954   0.466954   0.022608  -0.162793   0.000641
    11  C    0.000000   2.883478   2.883478  -0.042169  -0.026530  -0.001551
    12  F    0.000007   4.545457   4.545457   0.091430  -0.032796   0.048591
    13  F    0.000010   4.551097   4.551097   0.036972   0.022688  -0.099935
    14  F    0.000008   4.545092   4.545092   0.013228   0.095183   0.048851
    15  Br   0.000056  17.551055  17.551055   0.208164  -0.117657   0.000800
       Tot   0.000102  54.000114  54.000114   0.360011   0.176984   0.010396

 Dip from Atomic Chgs              0.105713   0.750865  -0.038768
         Total Dipole              0.465724   0.927849  -0.028373

 Hirshfeld charges, spin densities, dipoles, and CM5 charges using IRadAn=      4:
              Q-H        S-H        Dx         Dy         Dz        Q-CM5   
     1  C    0.029994   0.000000   0.015557  -0.008992   0.000065   0.036334
     2  C   -0.017625   0.000000   0.070909   0.031891   0.001042  -0.068889
     3  C   -0.029129   0.000000  -0.000484   0.070342   0.000524  -0.084567
     4  C   -0.035850   0.000000  -0.045885   0.043187   0.002649  -0.089118
     5  C   -0.022527   0.000000  -0.040199  -0.027734   0.001430  -0.033929
     6  C   -0.022124   0.000000   0.026709  -0.065159   0.002526  -0.070783
     7  H    0.066916   0.000000   0.140006   0.089972   0.002337   0.121917
     8  H    0.059381   0.000000  -0.003736   0.167349   0.001261   0.115294
     9  H    0.057000   0.000000  -0.133099   0.098032   0.001167   0.112180
    10  H    0.066093   0.000000   0.022608  -0.162793   0.000641   0.120381
    11  C    0.233044   0.000000  -0.042169  -0.026530  -0.001551   0.176820
    12  F   -0.090914   0.000000   0.091430  -0.032796   0.048591  -0.069135
    13  F   -0.102194   0.000000   0.036972   0.022688  -0.099935  -0.081947
    14  F   -0.090184   0.000000   0.013228   0.095183   0.048851  -0.068402
    15  Br  -0.102109   0.000000   0.208164  -0.117657   0.000800  -0.116385
       Tot  -0.000228   0.000000   0.360011   0.176984   0.010396  -0.000228
 Hirshfeld charges with hydrogens summed into heavy atoms:
              Q-H       Q-CM5   
     1  C    0.029994   0.036334
     2  C    0.049291   0.053028
     3  C    0.030252   0.030728
     4  C    0.021149   0.023062
     5  C   -0.022527  -0.033929
     6  C    0.043969   0.049599
    11  C    0.233044   0.176820
    12  F   -0.090914  -0.069135
    13  F   -0.102194  -0.081947
    14  F   -0.090184  -0.068402
    15  Br  -0.102109  -0.116385
 
 EQQ= 0.000000000000E+00 EQD= 0.000000000000E+00 EDD= 0.578015198598E-02
 EQQ+QD+DD= 0.578015198598E-02
 
          MBS Condensed to atoms (all electrons):
               1          2          3          4          5          6
     1  C    4.772848   0.498670  -0.029501  -0.012035  -0.028760   0.501392
     2  C    0.498670   4.804498   0.502576  -0.030262  -0.011653  -0.030711
     3  C   -0.029501   0.502576   4.809180   0.506849  -0.031157  -0.011190
     4  C   -0.012035  -0.030262   0.506849   4.815935   0.500334  -0.029335
     5  C   -0.028760  -0.011653  -0.031157   0.500334   4.824836   0.497424
     6  C    0.501392  -0.030711  -0.011190  -0.029335   0.497424   4.810828
     7  H   -0.025523   0.389239  -0.023355   0.001452   0.000053   0.001410
     8  H    0.001463  -0.025444   0.390894  -0.025489   0.001527   0.000039
     9  H    0.000068   0.001460  -0.023817   0.389267  -0.025684   0.001419
    10  H   -0.023903   0.001362   0.000049   0.001365  -0.023661   0.387058
    11  C    0.000847   0.000008   0.000888  -0.025192   0.369932  -0.025459
    12  F   -0.000001   0.000000   0.000005  -0.001383  -0.019546   0.000177
    13  F   -0.000001   0.000000  -0.000002  -0.000166  -0.019705  -0.000171
    14  F    0.000006   0.000000  -0.000001   0.000177  -0.019512  -0.001354
    15  Br   0.273806  -0.021848   0.000427  -0.000052   0.000452  -0.022094
               7          8          9         10         11         12
     1  C   -0.025523   0.001463   0.000068  -0.023903   0.000847  -0.000001
     2  C    0.389239  -0.025444   0.001460   0.001362   0.000008   0.000000
     3  C   -0.023355   0.390894  -0.023817   0.000049   0.000888   0.000005
     4  C    0.001452  -0.025489   0.389267   0.001365  -0.025192  -0.001383
     5  C    0.000053   0.001527  -0.025684  -0.023661   0.369932  -0.019546
     6  C    0.001410   0.000039   0.001419   0.387058  -0.025459   0.000177
     7  H    0.529254  -0.003879  -0.000036  -0.000040   0.000001   0.000000
     8  H   -0.003879   0.541713  -0.003759   0.000002  -0.000018   0.000000
     9  H   -0.000036  -0.003759   0.530880  -0.000038  -0.003740   0.001372
    10  H   -0.000040   0.000002  -0.000038   0.516779  -0.003853   0.000013
    11  C    0.000001  -0.000018  -0.003740  -0.003853   4.325500   0.225472
    12  F    0.000000   0.000000   0.001372   0.000013   0.225472   9.078486
    13  F    0.000000   0.000000   0.000071   0.000074   0.220055  -0.012275
    14  F    0.000000   0.000000   0.000012   0.001399   0.225645  -0.011755
    15  Br  -0.001556   0.000000   0.000001  -0.001763   0.000002   0.000000
              13         14         15
     1  C   -0.000001   0.000006   0.273806
     2  C    0.000000   0.000000  -0.021848
     3  C   -0.000002  -0.000001   0.000427
     4  C   -0.000166   0.000177  -0.000052
     5  C   -0.019705  -0.019512   0.000452
     6  C   -0.000171  -0.001354  -0.022094
     7  H    0.000000   0.000000  -0.001556
     8  H    0.000000   0.000000   0.000000
     9  H    0.000071   0.000012   0.000001
    10  H    0.000074   0.001399  -0.001763
    11  C    0.220055   0.225645   0.000002
    12  F   -0.012275  -0.011755   0.000000
    13  F    9.087244  -0.012288   0.000000
    14  F   -0.012288   9.077671   0.000000
    15  Br   0.000000   0.000000  34.927857
 MBS Mulliken charges:
               1
     1  C    0.070624
     2  C   -0.077894
     3  C   -0.091845
     4  C   -0.091466
     5  C   -0.014880
     6  C   -0.079433
     7  H    0.132980
     8  H    0.122950
     9  H    0.132524
    10  H    0.145158
    11  C    0.689912
    12  F   -0.260565
    13  F   -0.262836
    14  F   -0.259999
    15  Br  -0.155231
 Sum of MBS Mulliken charges =   0.00000
 MBS Mulliken charges with hydrogens summed into heavy atoms:
               1
     1  C    0.070624
     2  C    0.055086
     3  C    0.031105
     4  C    0.041058
     5  C   -0.014880
     6  C    0.065725
    11  C    0.689912
    12  F   -0.260565
    13  F   -0.262836
    14  F   -0.259999
    15  Br  -0.155231
 ******************************Gaussian NBO Version 3.1******************************
             N A T U R A L   A T O M I C   O R B I T A L   A N D
          N A T U R A L   B O N D   O R B I T A L   A N A L Y S I S
 ******************************Gaussian NBO Version 3.1******************************
       /RESON  / : Allow strongly delocalized NBO set

 Analyzing the SCF density

 Job title: Table3_4                                                        

 Storage needed:    257284 in NPA ( 104856325 available)


 NATURAL POPULATIONS:  Natural atomic orbital occupancies 
                                                          
   NAO  Atom  No  lang   Type(AO)    Occupancy      Energy
 ----------------------------------------------------------
     1    C    1  S      Cor( 1S)     1.99863     -10.12749
     2    C    1  S      Val( 2S)     0.95632      -0.25386
     3    C    1  S      Ryd( 4S)     0.00137       0.85309
     4    C    1  S      Ryd( 3S)     0.00030       0.52482
     5    C    1  S      Ryd( 5S)     0.00001      23.40656
     6    C    1  px     Val( 2p)     0.99916      -0.17172
     7    C    1  px     Ryd( 3p)     0.00717       0.87123
     8    C    1  px     Ryd( 4p)     0.00021       1.10836
     9    C    1  px     Ryd( 5p)     0.00036       2.74857
    10    C    1  py     Val( 2p)     1.05850      -0.12254
    11    C    1  py     Ryd( 3p)     0.00699       0.75835
    12    C    1  py     Ryd( 4p)     0.00028       0.96465
    13    C    1  py     Ryd( 5p)     0.00011       2.83518
    14    C    1  pz     Val( 2p)     1.06436      -0.16933
    15    C    1  pz     Ryd( 3p)     0.00121       0.56719
    16    C    1  pz     Ryd( 4p)     0.00032       0.79272
    17    C    1  pz     Ryd( 5p)     0.00004       2.19063
    18    C    1  dxy    Ryd( 3d)     0.00128       2.40007
    19    C    1  dxz    Ryd( 3d)     0.00090       1.63536
    20    C    1  dyz    Ryd( 3d)     0.00077       1.64511
    21    C    1  dx2y2  Ryd( 3d)     0.00127       2.47040
    22    C    1  dz2    Ryd( 3d)     0.00058       2.03516

    23    C    2  S      Cor( 1S)     1.99895     -10.06331
    24    C    2  S      Val( 2S)     0.94992      -0.19195
    25    C    2  S      Ryd( 3S)     0.00193       0.72275
    26    C    2  S      Ryd( 4S)     0.00022       0.87627
    27    C    2  S      Ryd( 5S)     0.00001      23.03383
    28    C    2  px     Val( 2p)     1.15907      -0.09323
    29    C    2  px     Ryd( 4p)     0.00735       0.92891
    30    C    2  px     Ryd( 3p)     0.00024       0.35424
    31    C    2  px     Ryd( 5p)     0.00009       3.17195
    32    C    2  py     Val( 2p)     1.10595      -0.10021
    33    C    2  py     Ryd( 4p)     0.00481       0.76859
    34    C    2  py     Ryd( 3p)     0.00031       0.33908
    35    C    2  py     Ryd( 5p)     0.00013       3.13924
    36    C    2  pz     Val( 2p)     0.97557      -0.14122
    37    C    2  pz     Ryd( 4p)     0.00100       0.48973
    38    C    2  pz     Ryd( 3p)     0.00030       0.27751
    39    C    2  pz     Ryd( 5p)     0.00001       2.68064
    40    C    2  dxy    Ryd( 3d)     0.00074       2.47954
    41    C    2  dxz    Ryd( 3d)     0.00048       1.59607
    42    C    2  dyz    Ryd( 3d)     0.00051       1.62590
    43    C    2  dx2y2  Ryd( 3d)     0.00082       2.53651
    44    C    2  dz2    Ryd( 3d)     0.00041       2.00859

    45    C    3  S      Cor( 1S)     1.99916     -10.06680
    46    C    3  S      Val( 2S)     0.95148      -0.19480
    47    C    3  S      Ryd( 3S)     0.00142       0.80285
    48    C    3  S      Ryd( 4S)     0.00017       1.02461
    49    C    3  S      Ryd( 5S)     0.00001      22.67553
    50    C    3  px     Val( 2p)     1.05296      -0.07550
    51    C    3  px     Ryd( 4p)     0.00423       0.77743
    52    C    3  px     Ryd( 3p)     0.00046       0.41121
    53    C    3  px     Ryd( 5p)     0.00017       2.99663
    54    C    3  py     Val( 2p)     1.17556      -0.08782
    55    C    3  py     Ryd( 4p)     0.00696       1.04650
    56    C    3  py     Ryd( 3p)     0.00026       0.26432
    57    C    3  py     Ryd( 5p)     0.00006       3.15262
    58    C    3  pz     Val( 2p)     0.98353      -0.14035
    59    C    3  pz     Ryd( 4p)     0.00076       0.51046
    60    C    3  pz     Ryd( 3p)     0.00023       0.32822
    61    C    3  pz     Ryd( 5p)     0.00001       2.60540
    62    C    3  dxy    Ryd( 3d)     0.00064       2.55947
    63    C    3  dxz    Ryd( 3d)     0.00049       1.64937
    64    C    3  dyz    Ryd( 3d)     0.00043       1.57652
    65    C    3  dx2y2  Ryd( 3d)     0.00078       2.46628
    66    C    3  dz2    Ryd( 3d)     0.00041       2.01376

    67    C    4  S      Cor( 1S)     1.99908     -10.06490
    68    C    4  S      Val( 2S)     0.94495      -0.19006
    69    C    4  S      Ryd( 4S)     0.00152       0.72106
    70    C    4  S      Ryd( 3S)     0.00012       0.69597
    71    C    4  S      Ryd( 5S)     0.00001      23.13923
    72    C    4  px     Val( 2p)     1.16553      -0.09235
    73    C    4  px     Ryd( 4p)     0.00606       1.04030
    74    C    4  px     Ryd( 3p)     0.00038       0.36438
    75    C    4  px     Ryd( 5p)     0.00009       3.14237
    76    C    4  py     Val( 2p)     1.07836      -0.08095
    77    C    4  py     Ryd( 4p)     0.00429       0.79552
    78    C    4  py     Ryd( 3p)     0.00046       0.38590
    79    C    4  py     Ryd( 5p)     0.00019       3.12570
    80    C    4  pz     Val( 2p)     0.97464      -0.14037
    81    C    4  pz     Ryd( 4p)     0.00105       0.50336
    82    C    4  pz     Ryd( 3p)     0.00030       0.29506
    83    C    4  pz     Ryd( 5p)     0.00002       2.68783
    84    C    4  dxy    Ryd( 3d)     0.00068       2.51099
    85    C    4  dxz    Ryd( 3d)     0.00045       1.60220
    86    C    4  dyz    Ryd( 3d)     0.00053       1.64634
    87    C    4  dx2y2  Ryd( 3d)     0.00073       2.55477
    88    C    4  dz2    Ryd( 3d)     0.00042       2.04288

    89    C    5  S      Cor( 1S)     1.99889     -10.08659
    90    C    5  S      Val( 2S)     0.90469      -0.19140
    91    C    5  S      Ryd( 3S)     0.00112       0.74220
    92    C    5  S      Ryd( 4S)     0.00019       1.19298
    93    C    5  S      Ryd( 5S)     0.00001      22.74398
    94    C    5  px     Val( 2p)     1.05741      -0.12032
    95    C    5  px     Ryd( 4p)     0.00544       1.09988
    96    C    5  px     Ryd( 3p)     0.00044       0.63044
    97    C    5  px     Ryd( 5p)     0.00020       3.22259
    98    C    5  py     Val( 2p)     1.09609      -0.11465
    99    C    5  py     Ryd( 4p)     0.00481       1.03179
   100    C    5  py     Ryd( 3p)     0.00044       0.64100
   101    C    5  py     Ryd( 5p)     0.00021       3.21468
   102    C    5  pz     Val( 2p)     1.05483      -0.15239
   103    C    5  pz     Ryd( 4p)     0.00204       0.54991
   104    C    5  pz     Ryd( 3p)     0.00037       0.53137
   105    C    5  pz     Ryd( 5p)     0.00002       2.59776
   106    C    5  dxy    Ryd( 3d)     0.00093       2.68645
   107    C    5  dxz    Ryd( 3d)     0.00046       1.76658
   108    C    5  dyz    Ryd( 3d)     0.00068       1.69624
   109    C    5  dx2y2  Ryd( 3d)     0.00074       2.67174
   110    C    5  dz2    Ryd( 3d)     0.00044       2.12262

   111    C    6  S      Cor( 1S)     1.99886     -10.06463
   112    C    6  S      Val( 2S)     0.93979      -0.18715
   113    C    6  S      Ryd( 3S)     0.00203       0.79833
   114    C    6  S      Ryd( 4S)     0.00018       0.80249
   115    C    6  S      Ryd( 5S)     0.00001      23.17049
   116    C    6  px     Val( 2p)     1.06680      -0.09675
   117    C    6  px     Ryd( 4p)     0.00483       0.76852
   118    C    6  px     Ryd( 3p)     0.00030       0.54210
   119    C    6  px     Ryd( 5p)     0.00017       3.28896
   120    C    6  py     Val( 2p)     1.20365      -0.11051
   121    C    6  py     Ryd( 4p)     0.00664       0.97634
   122    C    6  py     Ryd( 3p)     0.00032       0.48012
   123    C    6  py     Ryd( 5p)     0.00008       3.13186
   124    C    6  pz     Val( 2p)     0.97238      -0.14331
   125    C    6  pz     Ryd( 4p)     0.00105       0.49401
   126    C    6  pz     Ryd( 3p)     0.00040       0.30839
   127    C    6  pz     Ryd( 5p)     0.00002       2.69890
   128    C    6  dxy    Ryd( 3d)     0.00134       1.88284
   129    C    6  dxz    Ryd( 3d)     0.00027       1.37179
   130    C    6  dyz    Ryd( 3d)     0.00058       1.31998
   131    C    6  dx2y2  Ryd( 3d)     0.00115       1.79981
   132    C    6  dz2    Ryd( 3d)     0.00126       1.72845

   133    H    7  S      Val( 1S)     0.77061       0.02431
   134    H    7  S      Ryd( 2S)     0.00065       0.86986
   135    H    7  S      Ryd( 3S)     0.00018       1.81447
   136    H    7  px     Ryd( 2p)     0.00036       2.49155
   137    H    7  py     Ryd( 2p)     0.00022       2.13464
   138    H    7  pz     Ryd( 2p)     0.00017       1.57436

   139    H    8  S      Val( 1S)     0.78078       0.02271
   140    H    8  S      Ryd( 2S)     0.00054       0.58293
   141    H    8  S      Ryd( 3S)     0.00017       2.12685
   142    H    8  px     Ryd( 2p)     0.00011       1.95591
   143    H    8  py     Ryd( 2p)     0.00043       2.67105
   144    H    8  pz     Ryd( 2p)     0.00018       1.57043

   145    H    9  S      Val( 1S)     0.76956       0.02843
   146    H    9  S      Ryd( 2S)     0.00066       0.79621
   147    H    9  S      Ryd( 3S)     0.00017       1.83289
   148    H    9  px     Ryd( 2p)     0.00038       2.54089
   149    H    9  py     Ryd( 2p)     0.00023       2.14820
   150    H    9  pz     Ryd( 2p)     0.00017       1.58613

   151    H   10  S      Val( 1S)     0.75609       0.02836
   152    H   10  S      Ryd( 2S)     0.00094       0.94774
   153    H   10  S      Ryd( 3S)     0.00016       1.71918
   154    H   10  px     Ryd( 2p)     0.00026       2.05451
   155    H   10  py     Ryd( 2p)     0.00018       2.91888
   156    H   10  pz     Ryd( 2p)     0.00027       1.71436

   157    C   11  S      Cor( 1S)     1.99911     -10.35291
   158    C   11  S      Val( 2S)     0.78477      -0.27599
   159    C   11  S      Ryd( 4S)     0.00385       1.05132
   160    C   11  S      Ryd( 3S)     0.00047       0.56417
   161    C   11  S      Ryd( 5S)     0.00003      22.78055
   162    C   11  px     Val( 2p)     0.81353      -0.15702
   163    C   11  px     Ryd( 4p)     0.00977       1.21475
   164    C   11  px     Ryd( 3p)     0.00073       0.44172
   165    C   11  px     Ryd( 5p)     0.00016       1.92327
   166    C   11  py     Val( 2p)     0.67183      -0.14919
   167    C   11  py     Ryd( 4p)     0.01154       1.20073
   168    C   11  py     Ryd( 3p)     0.00079       0.46940
   169    C   11  py     Ryd( 5p)     0.00013       2.07186
   170    C   11  pz     Val( 2p)     0.60175      -0.14030
   171    C   11  pz     Ryd( 4p)     0.01042       1.05888
   172    C   11  pz     Ryd( 3p)     0.00085       0.47863
   173    C   11  pz     Ryd( 5p)     0.00007       2.28422
   174    C   11  dxy    Ryd( 3d)     0.00381       2.11836
   175    C   11  dxz    Ryd( 3d)     0.00432       1.82611
   176    C   11  dyz    Ryd( 3d)     0.00487       1.87914
   177    C   11  dx2y2  Ryd( 3d)     0.00364       1.99857
   178    C   11  dz2    Ryd( 3d)     0.00488       1.99556

   179    F   12  S      Cor( 1S)     1.99992     -24.46099
   180    F   12  S      Val( 2S)     1.85127      -1.32328
   181    F   12  S      Ryd( 3S)     0.00047       1.01611
   182    F   12  S      Ryd( 4S)     0.00030       2.03283
   183    F   12  S      Ryd( 5S)     0.00000      66.57372
   184    F   12  px     Val( 2p)     1.75438      -0.46146
   185    F   12  px     Ryd( 3p)     0.00105       0.44407
   186    F   12  px     Ryd( 4p)     0.00013       1.41439
   187    F   12  px     Ryd( 5p)     0.00004       6.25968
   188    F   12  py     Val( 2p)     1.87027      -0.45828
   189    F   12  py     Ryd( 3p)     0.00083       0.53500
   190    F   12  py     Ryd( 4p)     0.00014       1.37454
   191    F   12  py     Ryd( 5p)     0.00002       6.22221
   192    F   12  pz     Val( 2p)     1.87308      -0.45674
   193    F   12  pz     Ryd( 3p)     0.00067       0.46013
   194    F   12  pz     Ryd( 4p)     0.00008       1.37164
   195    F   12  pz     Ryd( 5p)     0.00002       6.18562
   196    F   12  dxy    Ryd( 3d)     0.00074       3.98783
   197    F   12  dxz    Ryd( 3d)     0.00071       3.95668
   198    F   12  dyz    Ryd( 3d)     0.00035       3.85715
   199    F   12  dx2y2  Ryd( 3d)     0.00054       3.87717
   200    F   12  dz2    Ryd( 3d)     0.00037       3.83950

   201    F   13  S      Cor( 1S)     1.99992     -24.45753
   202    F   13  S      Val( 2S)     1.85528      -1.31959
   203    F   13  S      Ryd( 3S)     0.00045       0.98632
   204    F   13  S      Ryd( 4S)     0.00039       2.09431
   205    F   13  S      Ryd( 5S)     0.00000      66.58577
   206    F   13  px     Val( 2p)     1.91607      -0.45031
   207    F   13  px     Ryd( 3p)     0.00100       0.50412
   208    F   13  px     Ryd( 4p)     0.00005       1.45774
   209    F   13  px     Ryd( 5p)     0.00001       6.11574
   210    F   13  py     Val( 2p)     1.92926      -0.44969
   211    F   13  py     Ryd( 3p)     0.00075       0.51092
   212    F   13  py     Ryd( 4p)     0.00004       1.44624
   213    F   13  py     Ryd( 5p)     0.00001       6.10088
   214    F   13  pz     Val( 2p)     1.64808      -0.46040
   215    F   13  pz     Ryd( 3p)     0.00080       0.45035
   216    F   13  pz     Ryd( 4p)     0.00018       1.50357
   217    F   13  pz     Ryd( 5p)     0.00006       6.15849
   218    F   13  dxy    Ryd( 3d)     0.00010       3.77939
   219    F   13  dxz    Ryd( 3d)     0.00073       3.95429
   220    F   13  dyz    Ryd( 3d)     0.00062       3.90085
   221    F   13  dx2y2  Ryd( 3d)     0.00010       3.76954
   222    F   13  dz2    Ryd( 3d)     0.00115       4.13107

   223    F   14  S      Cor( 1S)     1.99992     -24.46078
   224    F   14  S      Val( 2S)     1.85107      -1.32328
   225    F   14  S      Ryd( 3S)     0.00047       0.99902
   226    F   14  S      Ryd( 4S)     0.00031       2.05155
   227    F   14  S      Ryd( 5S)     0.00000      66.57584
   228    F   14  px     Val( 2p)     1.95024      -0.45515
   229    F   14  px     Ryd( 3p)     0.00110       0.55534
   230    F   14  px     Ryd( 4p)     0.00011       1.36995
   231    F   14  px     Ryd( 5p)     0.00001       6.21401
   232    F   14  py     Val( 2p)     1.67591      -0.46447
   233    F   14  py     Ryd( 3p)     0.00082       0.41731
   234    F   14  py     Ryd( 4p)     0.00017       1.43227
   235    F   14  py     Ryd( 5p)     0.00006       6.26670
   236    F   14  pz     Val( 2p)     1.87133      -0.45677
   237    F   14  pz     Ryd( 3p)     0.00070       0.45486
   238    F   14  pz     Ryd( 4p)     0.00008       1.37981
   239    F   14  pz     Ryd( 5p)     0.00002       6.18474
   240    F   14  dxy    Ryd( 3d)     0.00049       3.85609
   241    F   14  dxz    Ryd( 3d)     0.00014       3.77976
   242    F   14  dyz    Ryd( 3d)     0.00094       4.03875
   243    F   14  dx2y2  Ryd( 3d)     0.00079       4.00666
   244    F   14  dz2    Ryd( 3d)     0.00037       3.84009

   245   Br   15  S      Cor( 1S)     2.00000    -481.81727
   246   Br   15  S      Cor( 2S)     2.00000     -60.26286
   247   Br   15  S      Cor( 3S)     1.99977     -11.57616
   248   Br   15  S      Val( 4S)     1.86511      -1.06393
   249   Br   15  S      Ryd( 6S)     0.00298       0.77955
   250   Br   15  S      Ryd( 5S)     0.00022       0.30883
   251   Br   15  S      Ryd( 7S)     0.00000      14.57909
   252   Br   15  S      Ryd( 8S)     0.00000      84.30875
   253   Br   15  S      Ryd( 9S)     0.00000     975.92839
   254   Br   15  px     Cor( 2p)     2.00000     -56.07543
   255   Br   15  px     Cor( 3p)     1.99988      -6.77056
   256   Br   15  px     Val( 4p)     1.32118      -0.27047
   257   Br   15  px     Ryd( 6p)     0.00426       0.35488
   258   Br   15  px     Ryd( 5p)     0.00007       0.35313
   259   Br   15  px     Ryd( 7p)     0.00001       3.58024
   260   Br   15  px     Ryd( 8p)     0.00000      10.57957
   261   Br   15  px     Ryd( 9p)     0.00000     285.18420
   262   Br   15  py     Cor( 2p)     2.00000     -56.07330
   263   Br   15  py     Cor( 3p)     1.99996      -6.76508
   264   Br   15  py     Val( 4p)     1.78066      -0.29984
   265   Br   15  py     Ryd( 6p)     0.00238       0.38012
   266   Br   15  py     Ryd( 5p)     0.00008       0.37349
   267   Br   15  py     Ryd( 7p)     0.00001       3.37535
   268   Br   15  py     Ryd( 8p)     0.00000      10.64310
   269   Br   15  py     Ryd( 9p)     0.00000     285.18386
   270   Br   15  pz     Cor( 2p)     2.00000     -56.07254
   271   Br   15  pz     Cor( 3p)     1.99999      -6.76312
   272   Br   15  pz     Val( 4p)     1.93319      -0.31065
   273   Br   15  pz     Ryd( 6p)     0.00154       0.38091
   274   Br   15  pz     Ryd( 5p)     0.00005       0.36557
   275   Br   15  pz     Ryd( 7p)     0.00000       3.09457
   276   Br   15  pz     Ryd( 8p)     0.00000      10.69932
   277   Br   15  pz     Ryd( 9p)     0.00000     285.18229
   278   Br   15  dxy    Cor( 3d)     1.99986      -2.64722
   279   Br   15  dxy    Ryd( 4d)     0.00242       1.05443
   280   Br   15  dxy    Ryd( 5d)     0.00001       4.38569
   281   Br   15  dxz    Cor( 3d)     1.99996      -2.64508
   282   Br   15  dxz    Ryd( 4d)     0.00174       0.73001
   283   Br   15  dxz    Ryd( 5d)     0.00001       4.13832
   284   Br   15  dyz    Cor( 3d)     1.99998      -2.63938
   285   Br   15  dyz    Ryd( 4d)     0.00056       0.68751
   286   Br   15  dyz    Ryd( 5d)     0.00001       4.09006
   287   Br   15  dx2y2  Cor( 3d)     1.99992      -2.64726
   288   Br   15  dx2y2  Ryd( 4d)     0.00143       1.03491
   289   Br   15  dx2y2  Ryd( 5d)     0.00001       4.36111
   290   Br   15  dz2    Cor( 3d)     1.99994      -2.64055
   291   Br   15  dz2    Ryd( 4d)     0.00106       0.80354
   292   Br   15  dz2    Ryd( 5d)     0.00000       4.19612

 WARNING:  1 low occupancy (<1.9990e) core orbital  found on  C    1
           1 low occupancy (<1.9990e) core orbital  found on  C    2
           1 low occupancy (<1.9990e) core orbital  found on  C    5
           1 low occupancy (<1.9990e) core orbital  found on  C    6

 WARNING:  Population inversion found on atom  C    1
           Population inversion found on atom  C    2
           Population inversion found on atom  C    3
           Population inversion found on atom  C    4
           Population inversion found on atom  C    5
           Population inversion found on atom  C    6
           Population inversion found on atom  C   11
           Population inversion found on atom Br   15


 Summary of Natural Population Analysis:                  
                                                          
                                       Natural Population 
                Natural  -----------------------------------------------
    Atom  No    Charge         Core      Valence    Rydberg      Total
 -----------------------------------------------------------------------
      C    1   -0.10014      1.99863     4.07834    0.02317     6.10014
      C    2   -0.20882      1.99895     4.19051    0.01935     6.20882
      C    3   -0.18018      1.99916     4.16353    0.01749     6.18018
      C    4   -0.17983      1.99908     4.16347    0.01728     6.17983
      C    5   -0.13042      1.99889     4.11302    0.01851     6.13042
      C    6   -0.20210      1.99886     4.18262    0.02062     6.20210
      H    7    0.22782      0.00000     0.77061    0.00157     0.77218
      H    8    0.21779      0.00000     0.78078    0.00143     0.78221
      H    9    0.22884      0.00000     0.76956    0.00161     0.77116
      H   10    0.24210      0.00000     0.75609    0.00181     0.75790
      C   11    1.06869      1.99911     2.87188    0.06032     4.93131
      F   12   -0.35541      1.99992     7.34901    0.00648     9.35541
      F   13   -0.35505      1.99992     7.34870    0.00644     9.35505
      F   14   -0.35502      1.99992     7.34855    0.00656     9.35502
     Br   15    0.08174     27.99926     6.90015    0.01885    34.91826
 =======================================================================
   * Total *    0.00000     47.99170    59.78682    0.22148   108.00000

                                 Natural Population      
 --------------------------------------------------------
   Core                      47.99170 ( 99.9827% of  48)
   Valence                   59.78682 ( 99.6447% of  60)
   Natural Minimal Basis    107.77852 ( 99.7949% of 108)
   Natural Rydberg Basis      0.22148 (  0.2051% of 108)
 --------------------------------------------------------

    Atom  No          Natural Electron Configuration
 ----------------------------------------------------------------------------
      C    1      [core]2S( 0.96)2p( 3.12)3p( 0.02)
      C    2      [core]2S( 0.95)2p( 3.24)4p( 0.01)
      C    3      [core]2S( 0.95)2p( 3.21)4p( 0.01)
      C    4      [core]2S( 0.94)2p( 3.22)4p( 0.01)
      C    5      [core]2S( 0.90)2p( 3.21)4p( 0.01)
      C    6      [core]2S( 0.94)2p( 3.24)4p( 0.01)
      H    7            1S( 0.77)
      H    8            1S( 0.78)
      H    9            1S( 0.77)
      H   10            1S( 0.76)
      C   11      [core]2S( 0.78)2p( 2.09)3d( 0.02)4p( 0.03)
      F   12      [core]2S( 1.85)2p( 5.50)
      F   13      [core]2S( 1.86)2p( 5.49)
      F   14      [core]2S( 1.85)2p( 5.50)
     Br   15      [core]4S( 1.87)4p( 5.04)4d( 0.01)6p( 0.01)


 NBO analysis skipped by request.
 Calling FoFJK, ICntrl=      2127 FMM=F ISym2X=0 I1Cent= 0 IOpClX= 0 NMat=1 NMatS=1 NMatT=0.
 ***** Axes restored to original set *****
 -------------------------------------------------------------------
 Center     Atomic                   Forces (Hartrees/Bohr)
 Number     Number              X              Y              Z
 -------------------------------------------------------------------
      1        6           0.000025043   -0.000022810   -0.000002279
      2        6          -0.000032412   -0.000001831    0.000004913
      3        6           0.000031252   -0.000008388   -0.000000245
      4        6          -0.000004383   -0.000029083   -0.000009523
      5        6           0.000026470    0.000041742    0.000014029
      6        6          -0.000028062    0.000015770   -0.000004858
      7        1           0.000016590    0.000001509   -0.000003869
      8        1           0.000006420    0.000009116   -0.000000793
      9        1          -0.000004371    0.000013813    0.000002464
     10        1          -0.000001807   -0.000015824    0.000002600
     11        6          -0.000065505   -0.000038056   -0.000113205
     12        9           0.000053076   -0.000017951    0.000034477
     13        9          -0.000011861    0.000004299    0.000052897
     14        9          -0.000003932    0.000052260    0.000022944
     15       35          -0.000006519   -0.000004566    0.000000446
 -------------------------------------------------------------------
 Cartesian Forces:  Max     0.000113205 RMS     0.000029061

 GradGradGradGradGradGradGradGradGradGradGradGradGradGradGradGradGradGrad
 Berny optimization.
 FormGI is forming the generalized inverse of G from B-inverse, IUseBI=4.
 Internal  Forces:  Max     0.000068077 RMS     0.000014061
 Search for a local minimum.
 Step number   1 out of a maximum of   79
 All quantities printed in internal units (Hartrees-Bohrs-Radians)
 Mixed Optimization -- En-DIIS/RFO-DIIS
 Second derivative matrix not updated -- first step.
 ITU=  0
     Eigenvalues ---    0.00074   0.01549   0.01655   0.01733   0.01983
     Eigenvalues ---    0.02329   0.02488   0.02636   0.02776   0.02924
     Eigenvalues ---    0.11003   0.11661   0.11887   0.12074   0.12410
     Eigenvalues ---    0.13039   0.14701   0.17541   0.19060   0.19228
     Eigenvalues ---    0.20377   0.23121   0.23374   0.24757   0.25826
     Eigenvalues ---    0.28789   0.33143   0.34580   0.35796   0.36126
     Eigenvalues ---    0.36288   0.36494   0.38976   0.41539   0.42912
     Eigenvalues ---    0.46458   0.46525   0.50662   0.50770
 RFO step:  Lambda=-7.01070254D-08 EMin= 7.39577917D-04
 Linear search not attempted -- first point.
 Iteration  1 RMS(Cart)=  0.00083511 RMS(Int)=  0.00000058
 Iteration  2 RMS(Cart)=  0.00000061 RMS(Int)=  0.00000000
 Variable       Old X    -DE/DX   Delta X   Delta X   Delta X     New X
                                 (Linear)    (Quad)   (Total)
    R1        2.63064   0.00001   0.00000   0.00005   0.00005   2.63069
    R2        2.62734   0.00001   0.00000   0.00000   0.00000   2.62734
    R3        3.61762  -0.00001   0.00000  -0.00006  -0.00006   3.61756
    R4        2.63304  -0.00001   0.00000  -0.00006  -0.00006   2.63298
    R5        2.04500   0.00001   0.00000   0.00004   0.00004   2.04505
    R6        2.63003   0.00001   0.00000   0.00007   0.00007   2.63010
    R7        2.04754   0.00001   0.00000   0.00003   0.00003   2.04757
    R8        2.63517  -0.00002   0.00000  -0.00008  -0.00008   2.63509
    R9        2.04510   0.00001   0.00000   0.00003   0.00003   2.04512
   R10        2.63693  -0.00001   0.00000   0.00001   0.00001   2.63694
   R11        2.84708   0.00002   0.00000   0.00012   0.00012   2.84720
   R12        2.04356   0.00001   0.00000   0.00005   0.00005   2.04361
   R13        2.55380  -0.00007   0.00000  -0.00025  -0.00025   2.55355
   R14        2.56393   0.00005   0.00000   0.00023   0.00023   2.56416
   R15        2.55288  -0.00005   0.00000  -0.00016  -0.00016   2.55272
    A1        2.11826  -0.00001   0.00000  -0.00008  -0.00008   2.11818
    A2        2.08429   0.00000   0.00000   0.00001   0.00001   2.08429
    A3        2.08063   0.00001   0.00000   0.00007   0.00007   2.08070
    A4        2.07832   0.00001   0.00000   0.00004   0.00004   2.07837
    A5        2.09940   0.00000   0.00000  -0.00002  -0.00002   2.09938
    A6        2.10546   0.00000   0.00000  -0.00002  -0.00002   2.10544
    A7        2.10458   0.00000   0.00000   0.00001   0.00001   2.10458
    A8        2.08573   0.00000   0.00000   0.00001   0.00001   2.08574
    A9        2.09288   0.00000   0.00000  -0.00002  -0.00002   2.09286
   A10        2.08440   0.00000   0.00000  -0.00004  -0.00004   2.08436
   A11        2.10282   0.00000   0.00000  -0.00003  -0.00003   2.10279
   A12        2.09594   0.00001   0.00000   0.00007   0.00007   2.09600
   A13        2.10863   0.00001   0.00000   0.00003   0.00003   2.10866
   A14        2.09036   0.00001   0.00000   0.00015   0.00015   2.09052
   A15        2.08332  -0.00002   0.00000  -0.00018  -0.00018   2.08314
   A16        2.07218   0.00000   0.00000   0.00003   0.00003   2.07221
   A17        2.10589  -0.00001   0.00000  -0.00004  -0.00004   2.10585
   A18        2.10509   0.00000   0.00000   0.00001   0.00001   2.10510
   A19        1.95614  -0.00001   0.00000   0.00005   0.00005   1.95619
   A20        1.94820  -0.00002   0.00000  -0.00016  -0.00016   1.94804
   A21        1.95983   0.00000   0.00000  -0.00001  -0.00001   1.95981
   A22        1.86068   0.00001   0.00000   0.00002   0.00002   1.86070
   A23        1.87202   0.00001   0.00000   0.00011   0.00011   1.87213
   A24        1.86088   0.00001   0.00000   0.00000   0.00000   1.86087
    D1       -0.00072   0.00000   0.00000  -0.00002  -0.00002  -0.00073
    D2       -3.13938   0.00000   0.00000   0.00005   0.00005  -3.13933
    D3        3.13756   0.00000   0.00000   0.00001   0.00001   3.13757
    D4       -0.00110   0.00000   0.00000   0.00008   0.00008  -0.00102
    D5        0.00189   0.00000   0.00000  -0.00002  -0.00002   0.00187
    D6        3.13525   0.00000   0.00000   0.00005   0.00005   3.13530
    D7       -3.13640   0.00000   0.00000  -0.00005  -0.00005  -3.13645
    D8       -0.00304   0.00000   0.00000   0.00002   0.00002  -0.00302
    D9        0.00078   0.00000   0.00000   0.00001   0.00001   0.00079
   D10       -3.13807   0.00000   0.00000   0.00000   0.00000  -3.13807
   D11        3.13943   0.00000   0.00000  -0.00005  -0.00005   3.13938
   D12        0.00058   0.00000   0.00000  -0.00006  -0.00006   0.00052
   D13       -0.00202   0.00000   0.00000   0.00002   0.00002  -0.00200
   D14       -3.13468   0.00000   0.00000  -0.00008  -0.00008  -3.13475
   D15        3.13681   0.00000   0.00000   0.00004   0.00004   3.13685
   D16        0.00416   0.00000   0.00000  -0.00006  -0.00006   0.00409
   D17        0.00323   0.00000   0.00000  -0.00006  -0.00006   0.00317
   D18        3.09984   0.00000   0.00000   0.00001   0.00001   3.09985
   D19        3.13592   0.00000   0.00000   0.00004   0.00004   3.13596
   D20       -0.05065   0.00000   0.00000   0.00011   0.00011  -0.05054
   D21       -0.00315   0.00000   0.00000   0.00006   0.00006  -0.00309
   D22       -3.13651   0.00000   0.00000  -0.00001  -0.00001  -3.13652
   D23       -3.09994   0.00000   0.00000  -0.00002  -0.00002  -3.09995
   D24        0.04988   0.00000   0.00000  -0.00009  -0.00009   0.04980
   D25        0.53746  -0.00001   0.00000  -0.00191  -0.00191   0.53555
   D26       -1.54841   0.00000   0.00000  -0.00187  -0.00187  -1.55027
   D27        2.64612   0.00000   0.00000  -0.00174  -0.00174   2.64437
   D28       -2.64846   0.00000   0.00000  -0.00184  -0.00184  -2.65030
   D29        1.54886   0.00000   0.00000  -0.00179  -0.00179   1.54706
   D30       -0.53980   0.00000   0.00000  -0.00167  -0.00167  -0.54147
         Item               Value     Threshold  Converged?
 Maximum Force            0.000068     0.000450     YES
 RMS     Force            0.000014     0.000300     YES
 Maximum Displacement     0.003299     0.001800     NO 
 RMS     Displacement     0.000835     0.001200     YES
 Predicted change in Energy=-3.505351D-08
 GradGradGradGradGradGradGradGradGradGradGradGradGradGradGradGradGradGrad

                          Input orientation:                          
 ---------------------------------------------------------------------
 Center     Atomic      Atomic             Coordinates (Angstroms)
 Number     Number       Type             X           Y           Z
 ---------------------------------------------------------------------
      1          6           0        1.137618    0.354050   -0.003030
      2          6           0        1.118222    1.745945    0.011205
      3          6           0       -0.108651    2.406268    0.002474
      4          6           0       -1.299894    1.686865   -0.019210
      5          6           0       -1.258318    0.293139   -0.034653
      6          6           0       -0.039281   -0.385841   -0.024821
      7          1           0        2.044982    2.304548    0.026000
      8          1           0       -0.131689    3.489522    0.010127
      9          1           0       -2.251837    2.201509   -0.032341
     10          1           0       -0.010817   -1.466767   -0.041573
     11          6           0       -2.542549   -0.494167   -0.003584
     12          9           0       -3.557154    0.164951   -0.605330
     13          9           0       -2.943738   -0.746103    1.267926
     14          9           0       -2.423860   -1.692410   -0.615879
     15         35           0        2.817940   -0.563098    0.002088
 ---------------------------------------------------------------------
                    Distance matrix (angstroms):
                    1          2          3          4          5
     1  C    0.000000
     2  C    1.392102   0.000000
     3  C    2.401003   1.393313   0.000000
     4  C    2.778151   2.419028   1.391787   0.000000
     5  C    2.396919   2.785802   2.405915   1.394432   0.000000
     6  C    1.390326   2.426030   2.793105   2.425961   1.395408
     7  H    2.151417   1.082193   2.156162   3.401731   3.867976
     8  H    3.382676   2.145306   1.083526   2.148287   3.389419
     9  H    3.860358   3.400989   2.153226   1.082232   2.151501
    10  H    2.153082   3.405735   3.874521   3.406995   2.157215
    11  C    3.776652   4.291802   3.786346   2.510246   1.506673
    12  F    4.737025   4.973811   4.157535   2.784777   2.372077
    13  F    4.413970   4.928404   4.424537   3.205975   2.370100
    14  F    4.153036   4.976129   4.747812   3.610930   2.374598
    15  Br   1.914332   2.867194   4.169181   4.692477   4.165378
                    6          7          8          9         10
     6  C    0.000000
     7  H    3.403665   0.000000
     8  H    3.876623   2.478369   0.000000
     9  H    3.404385   4.298450   2.481090   0.000000
    10  H    1.081430   4.295776   4.958032   4.298662   0.000000
    11  C    2.505701   5.373930   4.656416   2.711458   2.712390
    12  F    3.607741   6.029957   4.813042   2.485908   3.944215
    13  F    3.199508   5.977974   5.237384   3.295123   3.291834
    14  F    2.782569   6.029779   5.700732   3.941156   2.490687
    15  Br   2.862841   2.970089   5.012395   5.774675   2.969914
                   11         12         13         14         15
    11  C    0.000000
    12  F    1.351280   0.000000
    13  F    1.356894   2.171494   0.000000
    14  F    1.350843   2.175834   2.171287   0.000000
    15  Br   5.360935   6.445218   5.901929   5.397564   0.000000
 Stoichiometry    C7H4BrF3
 Framework group  C1[X(C7H4BrF3)]
 Deg. of freedom    39
 Full point group                 C1      NOp   1
 Largest Abelian subgroup         C1      NOp   1
 Largest concise Abelian subgroup C1      NOp   1
                         Standard orientation:                         
 ---------------------------------------------------------------------
 Center     Atomic      Atomic             Coordinates (Angstroms)
 Number     Number       Type             X           Y           Z
 ---------------------------------------------------------------------
      1          6           0        1.137632    0.354084   -0.003338
      2          6           0        1.118244    1.745975    0.011232
      3          6           0       -0.108627    2.406306    0.002824
      4          6           0       -1.299876    1.686914   -0.018873
      5          6           0       -1.258309    0.293191   -0.034655
      6          6           0       -0.039274   -0.385797   -0.025149
      7          1           0        2.045009    2.304571    0.026036
      8          1           0       -0.131658    3.489558    0.010739
      9          1           0       -2.251818    2.201565   -0.031752
     10          1           0       -0.010817   -1.466719   -0.042163
     11          6           0       -2.542539   -0.494116   -0.003602
     12          9           0       -3.557222    0.165151   -0.605055
     13          9           0       -2.943559   -0.746355    1.267901
     14          9           0       -2.423938   -1.692213   -0.616200
     15         35           0        2.817950   -0.563073    0.001334
 ---------------------------------------------------------------------
 Rotational constants (GHZ):      1.6487627      0.3760912      0.3237942
 Standard basis: 6-311+G(d,p) (5D, 7F)
 There are   305 symmetry adapted cartesian basis functions of A   symmetry.
 There are   292 symmetry adapted basis functions of A   symmetry.
   292 basis functions,   486 primitive gaussians,   305 cartesian basis functions
    54 alpha electrons       54 beta electrons
       nuclear repulsion energy       852.0062256244 Hartrees.
 NAtoms=   15 NActive=   15 NUniq=   15 SFac= 1.00D+00 NAtFMM=   60 NAOKFM=F Big=F
 Integral buffers will be    131072 words long.
 Raffenetti 2 integral format.
 Two-electron integral symmetry is turned on.
 One-electron integrals computed using PRISM.
 NBasis=   292 RedAO= T EigKep=  2.20D-06  NBF=   292
 NBsUse=   292 1.00D-06 EigRej= -1.00D+00 NBFU=   292
 Initial guess from the checkpoint file:  "Table3_4_fixed.chk"
 B after Tr=     0.000000    0.000000    0.000000
         Rot=    1.000000   -0.000201   -0.000033    0.000000 Ang=  -0.02 deg.
 Requested convergence on RMS density matrix=1.00D-08 within 128 cycles.
 Requested convergence on MAX density matrix=1.00D-06.
 Requested convergence on             energy=1.00D-06.
 No special actions if energy rises.
 SCF Done:  E(RB3LYP) =  -3143.00148223     A.U. after    9 cycles
            NFock=  9  Conv=0.22D-08     -V/T= 2.0016
 Calling FoFJK, ICntrl=      2127 FMM=F ISym2X=0 I1Cent= 0 IOpClX= 0 NMat=1 NMatS=1 NMatT=0.
 ***** Axes restored to original set *****
 -------------------------------------------------------------------
 Center     Atomic                   Forces (Hartrees/Bohr)
 Number     Number              X              Y              Z
 -------------------------------------------------------------------
      1        6          -0.000000678   -0.000004447   -0.000000338
      2        6           0.000002846   -0.000004395   -0.000000808
      3        6           0.000004500   -0.000001294   -0.000000852
      4        6           0.000002683    0.000001679   -0.000000306
      5        6          -0.000000819    0.000001573    0.000000224
      6        6          -0.000002524   -0.000001483    0.000000247
      7        1           0.000004242   -0.000006724   -0.000001318
      8        1           0.000007228   -0.000001243   -0.000001407
      9        1           0.000003982    0.000004080   -0.000000231
     10        1          -0.000005306   -0.000001588    0.000000833
     11        6          -0.000002780    0.000004723    0.000000966
     12        9          -0.000001492    0.000007166    0.000000901
     13        9          -0.000003087    0.000006760    0.000000929
     14        9          -0.000005820    0.000003870    0.000001508
     15       35          -0.000002975   -0.000008676   -0.000000346
 -------------------------------------------------------------------
 Cartesian Forces:  Max     0.000008676 RMS     0.000003510

 GradGradGradGradGradGradGradGradGradGradGradGradGradGradGradGradGradGrad
 Berny optimization.
 Using GEDIIS/GDIIS optimizer.
 FormGI is forming the generalized inverse of G from B-inverse, IUseBI=4.
 Internal  Forces:  Max     0.000000373 RMS     0.000000111
 Search for a local minimum.
 Step number   2 out of a maximum of   79
 All quantities printed in internal units (Hartrees-Bohrs-Radians)
 Mixed Optimization -- En-DIIS/RFO-DIIS
 Swapping is turned off.
 Update second derivatives using D2CorX and points    1    2
 DE= -3.30D-08 DEPred=-3.51D-08 R= 9.43D-01
 Trust test= 9.43D-01 RLast= 4.46D-03 DXMaxT set to 3.00D-01
 ITU=  0  0
     Eigenvalues ---    0.00077   0.01551   0.01654   0.01733   0.01983
     Eigenvalues ---    0.02329   0.02487   0.02636   0.02775   0.02924
     Eigenvalues ---    0.11003   0.11661   0.11884   0.11982   0.12410
     Eigenvalues ---    0.13037   0.14691   0.17533   0.19060   0.19217
     Eigenvalues ---    0.20366   0.23119   0.23362   0.24686   0.25812
     Eigenvalues ---    0.28788   0.33033   0.34577   0.35790   0.36126
     Eigenvalues ---    0.36283   0.36488   0.38968   0.41539   0.42899
     Eigenvalues ---    0.46456   0.46515   0.50660   0.50762
 En-DIIS/RFO-DIIS IScMMF=        0 using points:     2    1
 RFO step:  Lambda=-5.01865720D-12.
 DidBck=F Rises=F RFO-DIIS coefs:    0.97402    0.02598
 Iteration  1 RMS(Cart)=  0.00009950 RMS(Int)=  0.00000001
 Iteration  2 RMS(Cart)=  0.00000001 RMS(Int)=  0.00000000
 Variable       Old X    -DE/DX   Delta X   Delta X   Delta X     New X
                                 (Linear)    (Quad)   (Total)
    R1        2.63069   0.00000   0.00000   0.00000   0.00000   2.63069
    R2        2.62734   0.00000   0.00000   0.00000   0.00000   2.62734
    R3        3.61756   0.00000   0.00000   0.00000   0.00000   3.61756
    R4        2.63298   0.00000   0.00000   0.00000   0.00000   2.63298
    R5        2.04505   0.00000   0.00000   0.00000   0.00000   2.04505
    R6        2.63010   0.00000   0.00000   0.00000   0.00000   2.63009
    R7        2.04757   0.00000   0.00000   0.00000   0.00000   2.04757
    R8        2.63509   0.00000   0.00000   0.00000   0.00000   2.63510
    R9        2.04512   0.00000   0.00000   0.00000   0.00000   2.04512
   R10        2.63694   0.00000   0.00000   0.00000   0.00000   2.63694
   R11        2.84720   0.00000   0.00000   0.00000   0.00000   2.84720
   R12        2.04361   0.00000   0.00000   0.00000   0.00000   2.04361
   R13        2.55355   0.00000   0.00001   0.00000   0.00000   2.55355
   R14        2.56416   0.00000  -0.00001   0.00001   0.00000   2.56416
   R15        2.55272   0.00000   0.00000  -0.00001   0.00000   2.55272
    A1        2.11818   0.00000   0.00000   0.00000   0.00000   2.11818
    A2        2.08429   0.00000   0.00000   0.00000   0.00000   2.08429
    A3        2.08070   0.00000   0.00000   0.00000   0.00000   2.08070
    A4        2.07837   0.00000   0.00000   0.00000   0.00000   2.07837
    A5        2.09938   0.00000   0.00000   0.00000   0.00000   2.09938
    A6        2.10544   0.00000   0.00000   0.00000   0.00000   2.10544
    A7        2.10458   0.00000   0.00000   0.00000   0.00000   2.10458
    A8        2.08574   0.00000   0.00000   0.00000   0.00000   2.08574
    A9        2.09286   0.00000   0.00000   0.00000   0.00000   2.09287
   A10        2.08436   0.00000   0.00000   0.00000   0.00000   2.08436
   A11        2.10279   0.00000   0.00000   0.00000   0.00000   2.10279
   A12        2.09600   0.00000   0.00000   0.00000   0.00000   2.09600
   A13        2.10866   0.00000   0.00000   0.00000   0.00000   2.10866
   A14        2.09052   0.00000   0.00000  -0.00001  -0.00001   2.09051
[...]
 ! A5    A(1,2,7)              120.2854         -DE/DX =    0.0                 !
 ! A6    A(3,2,7)              120.6326         -DE/DX =    0.0                 !
 ! A7    A(2,3,4)              120.5837         -DE/DX =    0.0                 !
 ! A8    A(2,3,8)              119.5038         -DE/DX =    0.0                 !
 ! A9    A(4,3,8)              119.9123         -DE/DX =    0.0                 !
 ! A10   A(3,4,5)              119.425          -DE/DX =    0.0                 !
 ! A11   A(3,4,9)              120.4811         -DE/DX =    0.0                 !
 ! A12   A(5,4,9)              120.092          -DE/DX =    0.0                 !
 ! A13   A(4,5,6)              120.8175         -DE/DX =    0.0                 !
 ! A14   A(4,5,11)             119.7779         -DE/DX =    0.0                 !
 ! A15   A(6,5,11)             119.3552         -DE/DX =    0.0                 !
 ! A16   A(1,6,5)              118.7289         -DE/DX =    0.0                 !
 ! A17   A(1,6,10)             120.6562         -DE/DX =    0.0                 !
 ! A18   A(5,6,10)             120.6132         -DE/DX =    0.0                 !
 ! A19   A(5,11,12)            112.0816         -DE/DX =    0.0                 !
 ! A20   A(5,11,13)            111.6145         -DE/DX =    0.0                 !
 ! A21   A(5,11,14)            112.289          -DE/DX =    0.0                 !
 ! A22   A(12,11,13)           106.6102         -DE/DX =    0.0                 !
 ! A23   A(12,11,14)           107.2652         -DE/DX =    0.0                 !
 ! A24   A(13,11,14)           106.6203         -DE/DX =    0.0                 !
 ! D1    D(6,1,2,3)             -0.0421         -DE/DX =    0.0                 !
 ! D2    D(6,1,2,7)           -179.8703         -DE/DX =    0.0                 !
 ! D3    D(15,1,2,3)           179.7696         -DE/DX =    0.0                 !
 ! D4    D(15,1,2,7)            -0.0587         -DE/DX =    0.0                 !
 ! D5    D(2,1,6,5)              0.1069         -DE/DX =    0.0                 !
 ! D6    D(2,1,6,10)           179.6392         -DE/DX =    0.0                 !
 ! D7    D(15,1,6,5)          -179.7051         -DE/DX =    0.0                 !
 ! D8    D(15,1,6,10)           -0.1728         -DE/DX =    0.0                 !
 ! D9    D(1,2,3,4)              0.0453         -DE/DX =    0.0                 !
 ! D10   D(1,2,3,8)           -179.798          -DE/DX =    0.0                 !
 ! D11   D(7,2,3,4)            179.873          -DE/DX =    0.0                 !
 ! D12   D(7,2,3,8)              0.0296         -DE/DX =    0.0                 !
 ! D13   D(2,3,4,5)             -0.1144         -DE/DX =    0.0                 !
 ! D14   D(2,3,4,9)           -179.6082         -DE/DX =    0.0                 !
 ! D15   D(8,3,4,5)            179.7283         -DE/DX =    0.0                 !
 ! D16   D(8,3,4,9)              0.2345         -DE/DX =    0.0                 !
 ! D17   D(3,4,5,6)              0.1816         -DE/DX =    0.0                 !
 ! D18   D(3,4,5,11)           177.6083         -DE/DX =    0.0                 !
 ! D19   D(9,4,5,6)            179.6774         -DE/DX =    0.0                 !
 ! D20   D(9,4,5,11)            -2.896          -DE/DX =    0.0                 !
 ! D21   D(4,5,6,1)             -0.1769         -DE/DX =    0.0                 !
 ! D22   D(4,5,6,10)          -179.7095         -DE/DX =    0.0                 !
 ! D23   D(11,5,6,1)          -177.6143         -DE/DX =    0.0                 !
 ! D24   D(11,5,6,10)            2.8531         -DE/DX =    0.0                 !
 ! D25   D(4,5,11,12)           30.6847         -DE/DX =    0.0                 !
 ! D26   D(4,5,11,13)          -88.8242         -DE/DX =    0.0                 !
 ! D27   D(4,5,11,14)          151.5114         -DE/DX =    0.0                 !
 ! D28   D(6,5,11,12)         -151.8508         -DE/DX =    0.0                 !
 ! D29   D(6,5,11,13)           88.6403         -DE/DX =    0.0                 !
 ! D30   D(6,5,11,14)          -31.0241         -DE/DX =    0.0                 !
 --------------------------------------------------------------------------------
 GradGradGradGradGradGradGradGradGradGradGradGradGradGradGradGradGradGrad

 1\1\GINC-COREV3-23-045\Freq\RB3LYP\6-311+G(d,p)\C7H4Br1F3\SWEAV003\26-
 Aug-2024\0\\#N Geom=AllCheck Guess=TCheck SCRF=Check GenChk RB3LYP/6-3
 11+G(d,p) Freq\\Table3_4\\0,1\C,1.1376180152,0.3540504122,-0.003029631
 4\C,1.1182218296,1.745944997,0.0112048638\C,-0.1086511807,2.4062683019
 ,0.0024744019\C,-1.2998938181,1.6868653079,-0.0192100221\C,-1.25831840
 57,0.2931392454,-0.0346527597\C,-0.0392811396,-0.3858413218,-0.0248207
 12\H,2.0449821048,2.3045484151,0.0259997093\H,-0.1316887059,3.48952217
 24,0.0101269313\H,-2.2518365626,2.2015086672,-0.0323406435\H,-0.010816
 8123,-1.4667667129,-0.0415725356\C,-2.5425490166,-0.4941666101,-0.0035
 842756\F,-3.5571540479,0.1649512584,-0.6053303876\F,-2.9437377191,-0.7
 46102698,1.2679259526\F,-2.4238604459,-1.6924095702,-0.6158785714\Br,2
 .8179399046,-0.5630978644,0.0020876797\\Version=ES64L-G09RevD.01\State
 =1-A\HF=-3143.0014822\RMSD=4.430e-09\RMSF=3.510e-06\ZeroPoint=0.094460
 7\Thermal=0.1038216\Dipole=0.4658181,0.9275633,-0.0289591\DipoleDeriv=
 0.9492827,-0.5294234,0.0026601,-0.5069583,0.1998742,-0.001805,0.005278
 5,0.0000336,-0.050937,-0.1881016,0.1840906,0.0018557,0.1397458,-0.0938
 909,0.0022884,0.0024266,0.0012797,-0.0820343,-0.0145629,-0.0127141,0.0
 013382,0.0264024,0.1152823,0.0013068,0.0050171,0.0021774,-0.1060424,-0
 .0262303,-0.0598559,0.0039669,0.0550913,-0.0665555,0.0077548,0.0193784
 ,-0.0003083,-0.0875954,-0.2006191,-0.0900009,-0.0159828,-0.1886359,-0.
 0460114,-0.0104057,-0.0811304,-0.0418884,-0.1294001,-0.3162029,0.15134
 75,0.0062481,0.0736084,-0.0544208,0.0004923,0.008606,0.013442,-0.05245
 4,0.0055796,-0.0480678,-0.001828,-0.0371253,0.0727854,-0.0009913,-0.00
 14179,-0.0010442,0.1332235,0.0500622,0.0133165,-0.0008816,0.0076354,-0
 .0675149,-0.0012677,-0.0033995,-0.0005037,0.1372908,0.0127367,0.046793
 8,0.0009151,0.0460544,0.0719028,-0.0008472,-0.0024516,0.0009407,0.1365
 529,0.1101918,0.0172063,0.000243,0.0114383,0.0325731,0.0010196,0.00002
 3,-0.0012814,0.1310637,2.0973469,0.2302032,0.0111693,0.3745439,1.64894
 54,0.0053976,-0.0526397,-0.0262096,1.6862893,-0.9199626,0.1393986,-0.2
 43741,0.1239893,-0.4180849,0.1259026,-0.2183378,0.1286258,-0.4171151,-
 0.6189371,-0.1745616,0.2360988,-0.2149819,-0.3784887,0.1468474,0.31413
 61,0.1646912,-0.845121,-0.4388707,-0.0940561,-0.0001926,-0.1533227,-0.
 8495375,-0.2760819,0.0058321,-0.2393918,-0.4202561,-0.5017127,0.226323
 5,-0.0018691,0.242515,-0.1668585,0.0003893,-0.0013208,-0.0005629,-0.03
 34647\Polar=132.693071,-8.9118403,106.6656112,0.2965676,0.1580808,62.2
 35001\PG=C01 [X(C7H4Br1F3)]\NImag=0\\0.51188330,0.07019446,0.59943764,
 0.00526824,0.00621224,0.11073974,-0.11113828,-0.04128996,-0.00084452,0
 .72516306,0.01941251,-0.32092441,-0.00268111,0.04518026,0.66854898,-0.
 00024875,-0.00300254,-0.05939267,0.00707399,0.00565963,0.13039608,0.03
 067844,0.08517743,0.00099008,-0.28704143,0.04942504,-0.00202315,0.6579
 9448,0.02864120,-0.02560132,-0.00000548,0.11815974,-0.17330260,0.00042
 138,0.00120690,0.73793109,0.00051996,0.00060569,0.00662975,-0.00171500
 ,-0.00024359,-0.06077493,0.00666231,0.00503514,0.13387168,-0.01570638,
 -0.03055581,-0.00029474,-0.05731323,0.02121783,-0.00070397,-0.27982491
 ,-0.12407876,-0.00338578,0.73443380,-0.03240866,-0.05671312,-0.0009044
 6,-0.02490178,0.06489067,0.00003327,-0.05918513,-0.18351569,-0.0019067
 3,-0.03253962,0.67086496,-0.00103810,-0.00155043,-0.00531401,-0.001312
 80,0.00151310,0.00658100,-0.00232087,-0.00283880,-0.06294966,0.0076754
 0,0.00324268,0.13510957,-0.06159303,-0.03165128,-0.00111832,-0.0183704
 0,0.02949147,0.00033758,0.03434749,-0.02830943,0.00014899,-0.12723625,
 -0.02038024,-0.00093667,0.64997443,0.02620938,0.06298773,0.00092294,0.
 02899622,-0.05009286,0.00004177,-0.07559548,-0.03235237,-0.00132444,0.
 04235487,-0.31946174,-0.00071962,-0.02698513,0.68158380,-0.00021009,-0
 .00099871,0.00580557,-0.00036680,-0.00027426,-0.00433829,-0.00110743,0
 .00018076,0.00657615,0.00075011,-0.00211921,-0.06315715,-0.00381396,-0
 .00086854,0.17214822,-0.25201378,-0.07258632,-0.00288969,0.03522627,-0
 .07120796,-0.00060292,-0.06793458,-0.00365636,-0.00078859,0.02904589,0
 .07892113,0.00201474,-0.26746457,0.05177897,-0.00068915,0.64567295,-0.
 13220909,-0.18340571,-0.00242193,-0.02677213,-0.02755945,-0.00071675,-
 0.00144006,-0.00051567,0.00013229,0.03084712,-0.02496984,0.00025426,0.
 11803025,-0.17636229,0.00090512,0.00351855,0.75166594,-0.00339266,-0.0
 0117835,-0.05930694,0.00049767,-0.00175420,0.00567666,-0.00160532,-0.0
 0019003,-0.00371436,0.00115098,0.00140364,0.00870261,-0.00017117,-0.00
 104065,-0.06072565,0.00510590,0.00758363,0.13032651,0.00289600,0.00364
 199,0.00004295,-0.26536174,-0.12818983,-0.00359446,-0.01746593,-0.0154
 6947,-0.00035869,-0.00289677,0.00353628,-0.00008874,0.00020423,0.00090
 323,0.00006237,0.00134084,0.00103510,-0.00003581,0.27990005,-0.0273118
 6,-0.01242803,-0.00040696,-0.12549573,-0.13336087,-0.00220091,0.014495
 56,0.01193919,0.00022054,0.00331022,-0.00078928,-0.00003121,0.00096896
 ,-0.00070919,0.00002636,0.00128360,-0.00553296,-0.00011049,0.13435371,
 0.13938894,-0.00029130,-0.00018509,0.00244841,-0.00352286,-0.00224241,
 -0.03712309,-0.00023300,-0.00004858,0.00395591,-0.00006711,0.00004643,
 0.00735315,-0.00005537,-0.00000666,-0.00079443,0.00004960,-0.00012628,
 0.00616863,0.00391564,0.00245539,0.02500274,-0.00336452,0.00198980,-0.
 00011295,0.00274567,0.02900534,0.00020628,-0.05862570,0.00612698,-0.00
 031872,0.00470360,-0.02793486,-0.00018413,-0.00440180,-0.00278138,-0.0
 0002243,-0.00125212,0.00009488,-0.00000355,0.00092557,-0.00043065,0.00
 006143,0.05867122,0.00219370,0.00092509,-0.00003322,-0.00187943,-0.010
 49907,-0.00011394,0.00584015,-0.33851255,-0.00217673,0.00269152,-0.011
 38447,-0.00008389,-0.00305075,0.00046497,-0.00000634,0.00003263,0.0006
 6909,0.00002184,0.00014186,0.00073780,0.00003762,-0.00631761,0.3578457
 4,-0.00008700,0.00000166,0.00723873,0.00001362,0.00019220,0.00357816,-
 0.00029797,-0.00208827,-0.03726704,-0.00004578,-0.00036610,0.00346178,
 -0.00025787,-0.00024507,0.00687222,-0.00003528,-0.00002176,-0.00118592
 ,0.00006103,0.00003785,-0.00413016,0.00041202,0.00237728,0.02585275,0.
 00012297,-0.00099093,0.00001466,-0.00261524,-0.00353390,-0.00022932,-0
 .01738208,0.01427084,-0.00020835,-0.27702674,0.11992249,-0.00291386,0.
 00327319,-0.00055568,-0.00017468,0.00145668,-0.00077946,-0.00014181,-0
 .00078504,0.00070357,-0.00001610,0.00094761,-0.00013430,0.00013228,0.2
 9293764,-0.00088590,-0.00084161,-0.00001952,-0.00333941,-0.00115105,-0
 .00006078,-0.01605492,0.01215540,-0.00014258,0.11868355,-0.12415337,0.
 00160509,0.02779684,-0.00982818,0.00023135,-0.00132513,-0.00557755,-0.
 00008631,-0.00076789,0.00041250,-0.00002196,0.00046095,0.00075207,0.00
 003553,-0.12691015,0.12793136,0.00001172,0.00000155,-0.00088643,-0.000
 11324,-0.00006664,0.00708006,-0.00027970,0.00016838,0.00360895,-0.0035
 2839,0.00218408,-0.03696135,0.00008972,-0.00035361,0.00350343,-0.00007
 744,-0.00021531,0.00623164,-0.00000960,0.00000500,0.00000866,0.0000614
 8,0.00003461,-0.00406694,0.00375508,-0.00187865,0.02547907,0.00303916,
 -0.02715303,-0.00029719,-0.00461904,-0.00231560,-0.00013577,-0.0009909
 7,-0.00004156,0.00001053,-0.00499522,0.00185011,-0.00010877,0.00418119
 ,0.02679222,0.00019085,-0.05672539,0.00861644,0.00015729,0.00029063,-0
 .00132075,-0.00003798,0.00008092,0.00000441,0.00000328,0.00016748,0.00
 139264,0.00002386,0.05917286,0.00285975,-0.01145540,-0.00015511,-0.002
 47433,0.00044771,-0.00015638,-0.00022606,0.00065650,0.00003718,0.00232
 227,0.00105332,-0.00012282,-0.00044091,-0.00968878,-0.00030387,0.00750
 182,-0.34441981,-0.00439187,0.00012971,-0.00041281,-0.00001182,-0.0000
 1346,-0.00006258,0.00001463,-0.00019064,-0.00039656,-0.00000172,-0.008
 00478,0.36384794,0.00004202,-0.00036225,0.00260258,-0.00009794,-0.0000
 6083,0.00618565,0.00004152,-0.00000075,-0.00118125,-0.00020722,-0.0000
 1376,0.00649525,-0.00027955,0.00012647,0.00387716,0.00035610,-0.005180
 98,-0.03675268,-0.00000132,-0.00000941,0.00011030,0.00000660,0.0000053
 2,-0.00073468,0.00000763,0.00001604,0.00042286,-0.00000672,0.00532144,
 0.02513022,-0.00485444,0.00547960,-0.00033465,0.00147103,0.00202045,0.
 00004470,0.00365025,0.00407331,-0.00023589,0.00638588,-0.01409456,-0.0
 0141987,-0.16643861,-0.04517500,0.00402519,-0.02763825,-0.01090586,0.0
 0141645,-0.00016938,0.00013299,0.00005043,0.00115942,0.00095924,0.0002
 2525,-0.00036313,0.00379940,0.00029806,-0.00011478,-0.00047609,-0.0000
 7432,0.55380872,0.00426395,0.00273178,-0.00007566,0.00345575,-0.002871
 25,0.00004886,0.00023805,-0.00663149,-0.00028258,-0.02774067,-0.014498
 58,0.00233227,-0.04504881,-0.12021023,0.00241451,0.00425438,0.01755152
 ,-0.00223742,0.00012205,-0.00026023,0.00004334,-0.00086825,-0.00015105
 ,-0.00016518,-0.00042466,-0.00171615,-0.00021669,0.00372533,-0.0015829
 5,0.00037504,0.03682772,0.51614650,-0.00034576,-0.00109032,0.00646223,
 -0.00014000,-0.00004822,-0.00073485,-0.00105281,-0.00007531,0.00601466
 ,-0.00029515,-0.00126946,0.00013317,-0.00068252,-0.00055972,-0.0659251
 1,-0.00120164,0.00047982,0.00013493,-0.00003893,-0.00001947,-0.0006646
 7,-0.00003211,-0.00009764,0.00046340,0.00011791,0.00068978,-0.00211188
 ,0.00066278,-0.00018418,-0.00220176,0.00587673,0.00388480,0.44384146,-
 0.00018534,-0.00007358,0.00138737,-0.00087388,0.00014134,-0.00020884,0
 .00013430,-0.00007345,0.00065102,-0.00114559,0.00257493,0.00030789,-0.
 04021675,0.02276360,-0.02151901,-0.00302776,-0.00741608,-0.00213366,0.
 00004744,-0.00009376,-0.00005826,-0.00014773,-0.00019180,-0.00009300,-
 0.00097912,-0.00195971,-0.00089329,0.00063001,0.00010793,-0.00042815,-
 0.19024743,0.04322167,-0.05646596,0.23353332,-0.00049263,-0.00001913,0
 .00009097,-0.00051144,0.00036136,0.00004027,0.00006716,0.00158156,-0.0
 0030881,-0.00100010,-0.00385910,-0.00162693,-0.00453700,0.00841516,-0.
 00032970,-0.00050250,-0.00087236,-0.00004737,-0.00013039,0.00011383,0.
 00005240,0.00013913,0.00004804,0.00000824,-0.00196464,0.00138125,0.000
 25764,-0.00064329,0.00021227,-0.00006999,0.05087373,-0.09722832,0.0261
 6049,-0.10489653,0.14919601,0.00021284,0.00087848,-0.00028859,0.000151
 13,-0.00039703,-0.00003305,-0.00035585,-0.00029880,0.00016209,0.000185
 34,0.00135869,0.00077700,-0.00934701,0.00655677,0.00407539,-0.00164509
 ,-0.00221794,0.00056506,0.00001790,-0.00004131,-0.00003965,-0.00007131
 ,-0.00005179,-0.00004028,-0.00013103,-0.00050491,-0.00055163,0.0001240
 9,-0.00004630,-0.00005696,-0.05848814,0.02263874,-0.09835196,0.0963421
 8,-0.06399828,0.13488166,0.00116137,-0.00109192,-0.00149646,-0.0006483
 3,-0.00061075,0.00026514,-0.00103060,-0.00038591,-0.00174312,-0.002215
 83,0.00258455,0.00134629,-0.01194759,-0.01462095,0.03326908,0.00095802
 ,-0.00160566,0.00053277,0.00002744,-0.00001636,0.00018639,-0.00024915,
 -0.00021014,-0.00011335,0.00005613,-0.00054903,0.00091752,-0.00008434,
 0.00014517,0.00080663,-0.09941467,-0.01807805,0.05658557,0.01300540,0.
 01338803,-0.03411076,0.09298293,-0.00052071,-0.00146812,-0.00125325,-0
 .00105539,0.00072068,0.00014047,0.00047464,0.00075412,-0.00070773,-0.0
 0027077,0.00055063,-0.00012589,-0.01461914,0.00268089,0.02041182,0.000
 85705,-0.00230128,0.00130847,-0.00001391,0.00003483,0.00009436,-0.0000
 0692,-0.00007655,0.00005165,0.00012151,0.00011366,0.00038961,-0.000437
 51,0.00013730,0.00062356,-0.01811784,-0.08129154,0.03536867,0.00736040
 ,-0.00436242,0.03730985,0.01109030,0.08306288,-0.00001416,0.00116760,0
 .00103348,0.00051849,0.00002048,-0.00022918,0.00071854,0.00043547,0.00
 108715,0.00162075,-0.00141632,0.00012708,0.01454080,0.00908379,-0.0160
 9424,-0.00044372,0.00180606,0.00010153,0.00002314,0.00001389,-0.000181
 09,0.00022109,0.00019835,-0.00000735,-0.00024197,0.00000708,-0.0010590
 1,-0.00009754,-0.00018695,-0.00109741,0.05564011,0.03454620,-0.1876657
 7,-0.01984464,0.03349757,-0.05815386,-0.07381986,-0.04656861,0.3213506
 8,0.00182238,-0.00074005,0.00008692,-0.00019843,-0.00063062,-0.0001108
 3,-0.00009190,-0.00168185,0.00074699,-0.00471162,0.00077140,-0.0010575
 5,0.00591903,-0.02803499,-0.01046350,-0.00245055,-0.00026013,-0.001199
 44,0.00000670,-0.00009995,-0.00001804,-0.00041840,-0.00023125,0.000093
 00,0.00015474,-0.00039707,-0.00024533,-0.00072424,-0.00193011,-0.00018
 946,-0.07876319,-0.00691960,-0.00281099,-0.00925592,0.05052742,0.00743
 441,0.00795986,0.01565559,0.02057267,0.08107554,0.00045583,-0.00064921
 ,0.00079621,-0.00058031,0.00014436,-0.00023624,0.00031353,-0.00134776,
 0.00120027,-0.00691278,0.00110188,-0.00189415,-0.00064521,-0.03714582,
 -0.01927327,0.00295403,-0.00210458,0.00077279,-0.00008505,0.00014166,-
 0.00012490,-0.00061728,-0.00034598,0.00015526,0.00037900,0.00073961,-0
 .00032456,-0.00176236,0.00076773,-0.00081936,-0.01453192,-0.20891418,-
 0.06332386,0.03834147,-0.05515687,-0.00117027,0.00971842,0.00118894,-0
 .03237565,-0.02618580,0.30109453,-0.00007093,-0.00040409,0.00013339,-0
 .00029837,0.00042865,-0.00002413,0.00088863,-0.00062903,-0.00025256,-0
 .00282939,-0.00029832,0.00058796,0.00169128,-0.01148656,0.00388568,0.0
 0123392,-0.00040334,0.00072512,-0.00003700,0.00003744,-0.00003111,-0.0
 0023084,-0.00010826,-0.00008916,0.00001405,0.00012640,-0.00005940,-0.0
 0051705,0.00010973,-0.00057319,-0.00702256,-0.06344157,-0.09955520,0.0
 0285328,0.00626867,0.01708130,0.01739882,-0.04696399,-0.05927278,-0.01
 282115,0.11663212,0.13743612,-0.10274786,0.03964960,-0.00040169,-0.016
 42602,0.01059440,-0.00006969,0.00358313,0.00121783,0.00001433,-0.00149
 662,0.00128397,0.00003704,-0.00023056,-0.00604988,0.00006944,-0.035193
 66,0.01924614,-0.00017763,0.00103997,-0.00047956,0.00003653,-0.0007746
 0,0.00015178,-0.00001023,0.00003492,0.00005583,-0.00001045,0.00069173,
 0.00068973,0.00002416,0.00152856,0.00297113,-0.00017711,-0.00127095,-0
 .00031696,-0.00031869,-0.00056064,-0.00051729,0.00060628,-0.00032401,-
 0.00084158,-0.00025271,0.15214661,0.03959808,-0.05257619,-0.00006566,0
 .03250793,-0.01535220,0.00010187,-0.00473683,-0.00323841,-0.00013792,0
 .00167111,0.00088372,0.00004635,-0.00061962,-0.00028109,0.00000399,-0.
 00182388,0.00373494,-0.00005366,0.00079262,0.00072461,0.00003817,0.001
 15334,-0.00041056,0.00001205,0.00008693,0.00017861,0.00001630,-0.00070
 227,0.00089613,0.00004945,-0.00086516,-0.00107383,0.00008462,0.0001935
 7,0.00018872,-0.00001591,0.00024231,0.00025597,-0.00022897,0.00015702,
 0.00048569,0.00013216,-0.06765514,0.06558390,-0.00035604,-0.00009544,-
 0.01790525,0.00015662,-0.00004577,0.00315258,-0.00002498,-0.00006608,0
 .00423346,-0.00002504,0.00002557,-0.00094639,-0.00014593,-0.00012687,0
 .00429106,-0.00038674,0.00014311,0.00305286,0.00004150,0.00002328,-0.0
 0208361,0.00000714,-0.00000322,0.00005449,0.00001551,0.00000344,-0.000
 63802,0.00002834,0.00007804,-0.00222608,-0.00000151,0.00013533,0.00016
 136,0.00010305,0.00000483,-0.00002653,-0.00002465,-0.00007900,0.000060
 77,-0.00001769,-0.00001438,0.00000797,0.00063043,0.00001715,0.00881134
 \\0.00000066,0.00000449,0.00000033,-0.00000283,0.00000436,0.00000081,-
 0.00000448,0.00000129,0.00000085,-0.00000268,-0.00000165,0.00000031,0.
 00000079,-0.00000159,-0.00000022,0.00000259,0.00000150,-0.00000024,-0.
 00000426,0.00000672,0.00000132,-0.00000723,0.00000124,0.00000141,-0.00
 000399,-0.00000408,0.00000023,0.00000530,0.00000158,-0.00000083,0.0000
 0275,-0.00000473,-0.00000097,0.00000150,-0.00000716,-0.00000090,0.0000
 0309,-0.00000676,-0.00000092,0.00000582,-0.00000387,-0.00000151,0.0000
 0296,0.00000868,0.00000035\\\@


 The mind is not a vessel to be filled but a fire to be kindled.
                                  -- Plutarch
 Job cpu time:       0 days  0 hours 37 minutes 30.7 seconds.
 File lengths (MBytes):  RWF=    155 Int=      0 D2E=      0 Chk=      7 Scr=      1
 Normal termination of Gaussian 09 at Mon Aug 26 15:37:09 2024.
