	You are loading a legacy vmd module, please load an up to date module instead.


	 module load container_env vmd

	Please run vmd command with crun.vmd prepend to it:
	
	 crun.vmd vmd

	 
module: Command not found.
module: Command not found.
 Entering Gaussian System, Link 0=g09
 Initial command:
 /opt/gaussian/g09/l1.exe "/tmp/G09-Figure2_10.com.o10670128.tmp/Gau-736988.inp" -scrdir="/tmp/G09-Figure2_10.com.o10670128.tmp/"
 Entering Link 1 = /opt/gaussian/g09/l1.exe PID=    736989.
  
 Copyright (c) 1988,1990,1992,1993,1995,1998,2003,2009,2013,
            Gaussian, Inc.  All Rights Reserved.
  
 This is part of the Gaussian(R) 09 program.  It is based on
 the Gaussian(R) 03 system (copyright 2003, Gaussian, Inc.),
 the Gaussian(R) 98 system (copyright 1998, Gaussian, Inc.),
 the Gaussian(R) 94 system (copyright 1995, Gaussian, Inc.),
 the Gaussian 92(TM) system (copyright 1992, Gaussian, Inc.),
 the Gaussian 90(TM) system (copyright 1990, Gaussian, Inc.),
 the Gaussian 88(TM) system (copyright 1988, Gaussian, Inc.),
 the Gaussian 86(TM) system (copyright 1986, Carnegie Mellon
 University), and the Gaussian 82(TM) system (copyright 1983,
 Carnegie Mellon University). Gaussian is a federally registered
 trademark of Gaussian, Inc.
  
 This software contains proprietary and confidential information,
 including trade secrets, belonging to Gaussian, Inc.
  
 This software is provided under written license and may be
 used, copied, transmitted, or stored only in accord with that
 written license.
  
 The following legend is applicable only to US Government
 contracts under FAR:
  
                    RESTRICTED RIGHTS LEGEND
  
 Use, reproduction and disclosure by the US Government is
 subject to restrictions as set forth in subparagraphs (a)
 and (c) of the Commercial Computer Software - Restricted
 Rights clause in FAR 52.227-19.
  
 Gaussian, Inc.
 340 Quinnipiac St., Bldg. 40, Wallingford CT 06492
  
  
 ---------------------------------------------------------------
 Warning -- This program may not be used in any manner that
 competes with the business of Gaussian, Inc. or will provide
 assistance to any competitor of Gaussian, Inc.  The licensee
 of this program is prohibited from giving any competitor of
 Gaussian, Inc. access to this program.  By using this program,
 the user acknowledges that Gaussian, Inc. is engaged in the
 business of creating and licensing software in the field of
 computational chemistry and represents and warrants to the
 licensee that it is not a competitor of Gaussian, Inc. and that
 it will not use this program in any manner prohibited above.
 ---------------------------------------------------------------
  

 Cite this work as:
 Gaussian 09, Revision D.01,
 M. J. Frisch, G. W. Trucks, H. B. Schlegel, G. E. Scuseria, 
 M. A. Robb, J. R. Cheeseman, G. Scalmani, V. Barone, B. Mennucci, 
 G. A. Petersson, H. Nakatsuji, M. Caricato, X. Li, H. P. Hratchian, 
 A. F. Izmaylov, J. Bloino, G. Zheng, J. L. Sonnenberg, M. Hada, 
 M. Ehara, K. Toyota, R. Fukuda, J. Hasegawa, M. Ishida, T. Nakajima, 
 Y. Honda, O. Kitao, H. Nakai, T. Vreven, J. A. Montgomery, Jr., 
 J. E. Peralta, F. Ogliaro, M. Bearpark, J. J. Heyd, E. Brothers, 
 K. N. Kudin, V. N. Staroverov, T. Keith, R. Kobayashi, J. Normand, 
 K. Raghavachari, A. Rendell, J. C. Burant, S. S. Iyengar, J. Tomasi, 
 M. Cossi, N. Rega, J. M. Millam, M. Klene, J. E. Knox, J. B. Cross, 
 V. Bakken, C. Adamo, J. Jaramillo, R. Gomperts, R. E. Stratmann, 
 O. Yazyev, A. J. Austin, R. Cammi, C. Pomelli, J. W. Ochterski, 
 R. L. Martin, K. Morokuma, V. G. Zakrzewski, G. A. Voth, 
 P. Salvador, J. J. Dannenberg, S. Dapprich, A. D. Daniels, 
 O. Farkas, J. B. Foresman, J. V. Ortiz, J. Cioslowski, 
 and D. J. Fox, Gaussian, Inc., Wallingford CT, 2013.
 
 ******************************************
 Gaussian 09:  ES64L-G09RevD.01 24-Apr-2013
                27-Aug-2024 
 ******************************************
 %nprocshared=20
 Will use up to   20 processors via shared memory.
 %mem=4GB
 %chk=Figure2_10.chk
 ----------------------------------------------------------------------
 # opt freq=noraman b3lyp/6-311+g(d,p) pop=(npa,hirshfeld,chelpg,mbs) g
 eom=connectivity
 ----------------------------------------------------------------------
 1/14=-1,18=20,19=15,26=3,38=1,57=2/1,3;
 2/9=110,12=2,17=6,18=5,40=1/2;
 3/5=4,6=6,7=111,11=2,16=1,25=1,30=1,71=1,74=-5/1,2,3;
 4//1;
 5/5=2,38=5/2;
 6/7=2,8=2,9=2,10=2,15=8,20=3,27=100,28=1,40=-1,79=1/1,2,7;
 7//1,2,3,16;
 1/14=-1,18=20,19=15,26=3/3(2);
 2/9=110/2;
 99//99;
 2/9=110/2;
 3/5=4,6=6,7=111,11=2,16=1,25=1,30=1,71=1,74=-5/1,2,3;
 4/5=5,16=3,69=1/1;
 5/5=2,38=5/2;
 7//1,2,3,16;
 1/14=-1,18=20,19=15,26=3/3(-5);
 2/9=110/2;
 6/7=2,8=2,9=2,10=2,15=8,19=2,20=3,27=100,28=1,40=-1,79=1/1,2,7;
 99/9=1/99;
 -------------------
 Title Card Required
 -------------------
 Symbolic Z-matrix:
 Charge =  0 Multiplicity = 1
 C                    -0.07882   0.22276  -0.27701 
 C                     1.35367   0.58351  -0.52923 
 C                     1.40564   1.74586   0.49165 
 C                    -0.77777   1.60308  -0.3412 
 H                    -0.51959  -0.51215  -0.91774 
 H                    -0.11067  -0.14116   0.72869 
 H                     1.53071   0.9208   -1.52913 
 H                     2.03917  -0.21489  -0.33544 
 H                     1.18457   1.39913   1.47948 
 H                     2.34653   2.25432   0.52478 
 H                    -1.57457   1.58662   0.37277 
 N                     0.32988   2.57385  -0.05743 
 C                     0.85497   3.10519  -1.32347 
 O                     1.40817   4.23515  -1.35037 
 O                     0.73713   2.33802  -2.5245 
 C                     0.63903   3.22004  -3.64581 
 C                     0.51213   2.39386  -4.93922 
 H                     0.43873   3.05383  -5.77825 
 H                     1.37459   1.77037  -5.05025 
 H                    -0.3651    1.78335  -4.88785 
 C                     1.90159   4.09872  -3.71975 
 H                     1.82819   4.75869  -4.55877 
 H                     1.98976   4.67275  -2.82108 
 H                     2.76405   3.47523  -3.83078 
 C                    -0.60226   4.11739  -3.48601 
 H                    -0.51409   4.69143  -2.58734 
 H                    -0.67567   4.77736  -4.32503 
 H                    -1.4795    3.50688  -3.43464 
 C                    -1.35217   1.98674  -1.7176 
 F                    -0.3634    1.97604  -2.6367 
 F                    -1.89173   3.22246  -1.65147 
 F                    -2.30489   1.09805  -2.07122 
 

 GradGradGradGradGradGradGradGradGradGradGradGradGradGradGradGradGradGrad
 Berny optimization.
 Initialization pass.
                           ----------------------------
                           !    Initial Parameters    !
                           ! (Angstroms and Degrees)  !
 --------------------------                            --------------------------
 ! Name  Definition              Value          Derivative Info.                !
 --------------------------------------------------------------------------------
 ! R1    R(1,2)                  1.4986         estimate D2E/DX2                !
 ! R2    R(1,4)                  1.5485         estimate D2E/DX2                !
 ! R3    R(1,5)                  1.07           estimate D2E/DX2                !
 ! R4    R(1,6)                  1.07           estimate D2E/DX2                !
 ! R5    R(2,3)                  1.5479         estimate D2E/DX2                !
 ! R6    R(2,7)                  1.07           estimate D2E/DX2                !
 ! R7    R(2,8)                  1.07           estimate D2E/DX2                !
 ! R8    R(3,9)                  1.07           estimate D2E/DX2                !
 ! R9    R(3,10)                 1.07           estimate D2E/DX2                !
 ! R10   R(3,12)                 1.4644         estimate D2E/DX2                !
 ! R11   R(4,11)                 1.07           estimate D2E/DX2                !
 ! R12   R(4,12)                 1.4999         estimate D2E/DX2                !
 ! R13   R(4,29)                 1.54           estimate D2E/DX2                !
 ! R14   R(12,13)                1.47           estimate D2E/DX2                !
 ! R15   R(13,14)                1.2584         estimate D2E/DX2                !
 ! R16   R(13,15)                1.43           estimate D2E/DX2                !
 ! R17   R(15,16)                1.43           estimate D2E/DX2                !
 ! R18   R(16,17)                1.54           estimate D2E/DX2                !
 ! R19   R(16,21)                1.54           estimate D2E/DX2                !
 ! R20   R(16,25)                1.54           estimate D2E/DX2                !
 ! R21   R(17,18)                1.07           estimate D2E/DX2                !
 ! R22   R(17,19)                1.07           estimate D2E/DX2                !
 ! R23   R(17,20)                1.07           estimate D2E/DX2                !
 ! R24   R(21,22)                1.07           estimate D2E/DX2                !
 ! R25   R(21,23)                1.07           estimate D2E/DX2                !
 ! R26   R(21,24)                1.07           estimate D2E/DX2                !
 ! R27   R(25,26)                1.07           estimate D2E/DX2                !
 ! R28   R(25,27)                1.07           estimate D2E/DX2                !
 ! R29   R(25,28)                1.07           estimate D2E/DX2                !
 ! R30   R(29,30)                1.35           estimate D2E/DX2                !
 ! R31   R(29,31)                1.35           estimate D2E/DX2                !
 ! R32   R(29,32)                1.35           estimate D2E/DX2                !
 ! A1    A(2,1,4)              102.1169         estimate D2E/DX2                !
 ! A2    A(2,1,5)              117.2788         estimate D2E/DX2                !
 ! A3    A(2,1,6)              105.5764         estimate D2E/DX2                !
 ! A4    A(4,1,5)              113.6699         estimate D2E/DX2                !
 ! A5    A(4,1,6)              109.1895         estimate D2E/DX2                !
 ! A6    A(5,1,6)              108.4794         estimate D2E/DX2                !
 ! A7    A(1,2,3)               95.8462         estimate D2E/DX2                !
 ! A8    A(1,2,7)              113.0363         estimate D2E/DX2                !
 ! A9    A(1,2,8)              113.7216         estimate D2E/DX2                !
 ! A10   A(3,2,7)              111.9661         estimate D2E/DX2                !
 ! A11   A(3,2,8)              114.7939         estimate D2E/DX2                !
 ! A12   A(7,2,8)              107.3649         estimate D2E/DX2                !
 ! A13   A(2,3,9)              111.0153         estimate D2E/DX2                !
 ! A14   A(2,3,10)             114.0031         estimate D2E/DX2                !
 ! A15   A(2,3,12)              98.7791         estimate D2E/DX2                !
 ! A16   A(9,3,10)             107.8834         estimate D2E/DX2                !
 ! A17   A(9,3,12)             112.186          estimate D2E/DX2                !
 ! A18   A(10,3,12)            112.8862         estimate D2E/DX2                !
 ! A19   A(1,4,11)             107.1423         estimate D2E/DX2                !
 ! A20   A(1,4,12)             103.6353         estimate D2E/DX2                !
 ! A21   A(1,4,29)             115.3072         estimate D2E/DX2                !
 ! A22   A(11,4,12)            115.698          estimate D2E/DX2                !
 ! A23   A(11,4,29)            108.8118         estimate D2E/DX2                !
 ! A24   A(12,4,29)            106.4563         estimate D2E/DX2                !
 ! A25   A(3,12,4)             104.329          estimate D2E/DX2                !
 ! A26   A(3,12,13)            105.3614         estimate D2E/DX2                !
 ! A27   A(4,12,13)            109.5592         estimate D2E/DX2                !
 ! A28   A(12,13,14)           120.0            estimate D2E/DX2                !
 ! A29   A(12,13,15)           120.0            estimate D2E/DX2                !
 ! A30   A(14,13,15)           120.0            estimate D2E/DX2                !
 ! A31   A(13,15,16)           109.4712         estimate D2E/DX2                !
 ! A32   A(15,16,17)           109.4712         estimate D2E/DX2                !
 ! A33   A(15,16,21)           109.4712         estimate D2E/DX2                !
 ! A34   A(15,16,25)           109.4712         estimate D2E/DX2                !
 ! A35   A(17,16,21)           109.4712         estimate D2E/DX2                !
 ! A36   A(17,16,25)           109.4712         estimate D2E/DX2                !
 ! A37   A(21,16,25)           109.4712         estimate D2E/DX2                !
 ! A38   A(16,17,18)           109.4712         estimate D2E/DX2                !
 ! A39   A(16,17,19)           109.4712         estimate D2E/DX2                !
 ! A40   A(16,17,20)           109.4712         estimate D2E/DX2                !
 ! A41   A(18,17,19)           109.4712         estimate D2E/DX2                !
 ! A42   A(18,17,20)           109.4712         estimate D2E/DX2                !
 ! A43   A(19,17,20)           109.4712         estimate D2E/DX2                !
 ! A44   A(16,21,22)           109.4712         estimate D2E/DX2                !
 ! A45   A(16,21,23)           109.4712         estimate D2E/DX2                !
 ! A46   A(16,21,24)           109.4712         estimate D2E/DX2                !
 ! A47   A(22,21,23)           109.4712         estimate D2E/DX2                !
 ! A48   A(22,21,24)           109.4712         estimate D2E/DX2                !
 ! A49   A(23,21,24)           109.4712         estimate D2E/DX2                !
 ! A50   A(16,25,26)           109.4712         estimate D2E/DX2                !
 ! A51   A(16,25,27)           109.4712         estimate D2E/DX2                !
 ! A52   A(16,25,28)           109.4712         estimate D2E/DX2                !
 ! A53   A(26,25,27)           109.4712         estimate D2E/DX2                !
 ! A54   A(26,25,28)           109.4712         estimate D2E/DX2                !
 ! A55   A(27,25,28)           109.4712         estimate D2E/DX2                !
 ! A56   A(4,29,30)            109.4712         estimate D2E/DX2                !
 ! A57   A(4,29,31)            109.4712         estimate D2E/DX2                !
 ! A58   A(4,29,32)            109.4712         estimate D2E/DX2                !
 ! A59   A(30,29,31)           109.4712         estimate D2E/DX2                !
 ! A60   A(30,29,32)           109.4712         estimate D2E/DX2                !
 ! A61   A(31,29,32)           109.4712         estimate D2E/DX2                !
 ! D1    D(4,1,2,3)             48.2041         estimate D2E/DX2                !
 ! D2    D(4,1,2,7)            -68.6767         estimate D2E/DX2                !
 ! D3    D(4,1,2,8)            168.5649         estimate D2E/DX2                !
 ! D4    D(5,1,2,3)            173.143          estimate D2E/DX2                !
 ! D5    D(5,1,2,7)             56.2623         estimate D2E/DX2                !
 ! D6    D(5,1,2,8)            -66.4962         estimate D2E/DX2                !
 ! D7    D(6,1,2,3)            -65.9284         estimate D2E/DX2                !
 ! D8    D(6,1,2,7)            177.1909         estimate D2E/DX2                !
 ! D9    D(6,1,2,8)             54.4324         estimate D2E/DX2                !
 ! D10   D(2,1,4,11)          -145.0676         estimate D2E/DX2                !
 ! D11   D(2,1,4,12)           -22.2633         estimate D2E/DX2                !
 ! D12   D(2,1,4,29)            93.6588         estimate D2E/DX2                !
 ! D13   D(5,1,4,11)            87.6367         estimate D2E/DX2                !
 ! D14   D(5,1,4,12)          -149.559          estimate D2E/DX2                !
 ! D15   D(5,1,4,29)           -33.6369         estimate D2E/DX2                !
 ! D16   D(6,1,4,11)           -33.6281         estimate D2E/DX2                !
 ! D17   D(6,1,4,12)            89.1761         estimate D2E/DX2                !
 ! D18   D(6,1,4,29)          -154.9017         estimate D2E/DX2                !
 ! D19   D(1,2,3,9)             59.7794         estimate D2E/DX2                !
 ! D20   D(1,2,3,10)          -178.1361         estimate D2E/DX2                !
 ! D21   D(1,2,3,12)           -58.1671         estimate D2E/DX2                !
 ! D22   D(7,2,3,9)            177.5187         estimate D2E/DX2                !
 ! D23   D(7,2,3,10)           -60.3967         estimate D2E/DX2                !
 ! D24   D(7,2,3,12)            59.5723         estimate D2E/DX2                !
 ! D25   D(8,2,3,9)            -59.7424         estimate D2E/DX2                !
 ! D26   D(8,2,3,10)            62.3421         estimate D2E/DX2                !
 ! D27   D(8,2,3,12)          -177.6889         estimate D2E/DX2                !
 ! D28   D(2,3,12,4)            45.3152         estimate D2E/DX2                !
 ! D29   D(2,3,12,13)          -70.0575         estimate D2E/DX2                !
 ! D30   D(9,3,12,4)           -71.7409         estimate D2E/DX2                !
 ! D31   D(9,3,12,13)          172.8864         estimate D2E/DX2                !
 ! D32   D(10,3,12,4)          166.1103         estimate D2E/DX2                !
 ! D33   D(10,3,12,13)          50.7376         estimate D2E/DX2                !
 ! D34   D(1,4,12,3)           -15.0027         estimate D2E/DX2                !
 ! D35   D(1,4,12,13)           97.3872         estimate D2E/DX2                !
 ! D36   D(11,4,12,3)          101.9542         estimate D2E/DX2                !
 ! D37   D(11,4,12,13)        -145.6559         estimate D2E/DX2                !
 ! D38   D(29,4,12,3)         -137.0291         estimate D2E/DX2                !
 ! D39   D(29,4,12,13)         -24.6392         estimate D2E/DX2                !
 ! D40   D(1,4,29,30)          -57.9795         estimate D2E/DX2                !
 ! D41   D(1,4,29,31)         -177.9795         estimate D2E/DX2                !
 ! D42   D(1,4,29,32)           62.0205         estimate D2E/DX2                !
 ! D43   D(11,4,29,30)        -178.345          estimate D2E/DX2                !
 ! D44   D(11,4,29,31)          61.655          estimate D2E/DX2                !
 ! D45   D(11,4,29,32)         -58.3451         estimate D2E/DX2                !
 ! D46   D(12,4,29,30)          56.3246         estimate D2E/DX2                !
 ! D47   D(12,4,29,31)         -63.6754         estimate D2E/DX2                !
 ! D48   D(12,4,29,32)         176.3246         estimate D2E/DX2                !
 ! D49   D(3,12,13,14)         -94.1428         estimate D2E/DX2                !
 ! D50   D(3,12,13,15)          85.8572         estimate D2E/DX2                !
 ! D51   D(4,12,13,14)         154.1428         estimate D2E/DX2                !
 ! D52   D(4,12,13,15)         -25.8572         estimate D2E/DX2                !
 ! D53   D(12,13,15,16)        150.0            estimate D2E/DX2                !
 ! D54   D(14,13,15,16)        -30.0            estimate D2E/DX2                !
 ! D55   D(13,15,16,17)        180.0            estimate D2E/DX2                !
 ! D56   D(13,15,16,21)         60.0            estimate D2E/DX2                !
 ! D57   D(13,15,16,25)        -60.0            estimate D2E/DX2                !
 ! D58   D(15,16,17,18)       -180.0            estimate D2E/DX2                !
 ! D59   D(15,16,17,19)        -60.0            estimate D2E/DX2                !
 ! D60   D(15,16,17,20)         60.0            estimate D2E/DX2                !
 ! D61   D(21,16,17,18)        -60.0            estimate D2E/DX2                !
 ! D62   D(21,16,17,19)         60.0            estimate D2E/DX2                !
 ! D63   D(21,16,17,20)       -180.0            estimate D2E/DX2                !
 ! D64   D(25,16,17,18)         60.0            estimate D2E/DX2                !
 ! D65   D(25,16,17,19)       -180.0            estimate D2E/DX2                !
 ! D66   D(25,16,17,20)        -60.0            estimate D2E/DX2                !
 ! D67   D(15,16,21,22)        180.0            estimate D2E/DX2                !
 ! D68   D(15,16,21,23)        -60.0            estimate D2E/DX2                !
 ! D69   D(15,16,21,24)         60.0            estimate D2E/DX2                !
 ! D70   D(17,16,21,22)         60.0            estimate D2E/DX2                !
 ! D71   D(17,16,21,23)       -180.0            estimate D2E/DX2                !
 ! D72   D(17,16,21,24)        -60.0            estimate D2E/DX2                !
 ! D73   D(25,16,21,22)        -60.0            estimate D2E/DX2                !
 ! D74   D(25,16,21,23)         60.0            estimate D2E/DX2                !
 ! D75   D(25,16,21,24)        180.0            estimate D2E/DX2                !
 ! D76   D(15,16,25,26)         60.0            estimate D2E/DX2                !
 ! D77   D(15,16,25,27)        180.0            estimate D2E/DX2                !
 ! D78   D(15,16,25,28)        -60.0            estimate D2E/DX2                !
 ! D79   D(17,16,25,26)        180.0            estimate D2E/DX2                !
 ! D80   D(17,16,25,27)        -60.0            estimate D2E/DX2                !
 ! D81   D(17,16,25,28)         60.0            estimate D2E/DX2                !
 ! D82   D(21,16,25,26)        -60.0            estimate D2E/DX2                !
 ! D83   D(21,16,25,27)         60.0            estimate D2E/DX2                !
 ! D84   D(21,16,25,28)        180.0            estimate D2E/DX2                !
 --------------------------------------------------------------------------------
 Trust Radius=3.00D-01 FncErr=1.00D-07 GrdErr=1.00D-06
 Number of steps in this run=    187 maximum allowed number of steps=    192.
 GradGradGradGradGradGradGradGradGradGradGradGradGradGradGradGradGradGrad

                          Input orientation:                          
 ---------------------------------------------------------------------
 Center     Atomic      Atomic             Coordinates (Angstroms)
 Number     Number       Type             X           Y           Z
 ---------------------------------------------------------------------
      1          6           0       -0.078818    0.222762   -0.277014
      2          6           0        1.353671    0.583509   -0.529231
      3          6           0        1.405642    1.745858    0.491655
      4          6           0       -0.777773    1.603079   -0.341203
      5          1           0       -0.519589   -0.512146   -0.917740
      6          1           0       -0.110673   -0.141161    0.728692
      7          1           0        1.530707    0.920800   -1.529128
      8          1           0        2.039169   -0.214887   -0.335443
      9          1           0        1.184570    1.399132    1.479485
     10          1           0        2.346527    2.254324    0.524783
     11          1           0       -1.574565    1.586618    0.372766
     12          7           0        0.329880    2.573850   -0.057432
     13          6           0        0.854970    3.105189   -1.323472
     14          8           0        1.408174    4.235150   -1.350366
     15          8           0        0.737130    2.338024   -2.524501
     16          6           0        0.639032    3.220036   -3.645809
     17          6           0        0.512127    2.393858   -4.939225
     18          1           0        0.438726    3.053826   -5.778245
     19          1           0        1.374587    1.770370   -5.050252
     20          1           0       -0.365104    1.783346   -4.887849
     21          6           0        1.901590    4.098718   -3.719751
     22          1           0        1.828188    4.758685   -4.558772
     23          1           0        1.989764    4.672750   -2.821079
     24          1           0        2.764049    3.475230   -3.830779
     25          6           0       -0.602264    4.117393   -3.486012
     26          1           0       -0.514090    4.691426   -2.587340
     27          1           0       -0.675666    4.777360   -4.325033
     28          1           0       -1.479496    3.506881   -3.434637
     29          6           0       -1.352166    1.986742   -1.717603
     30          9           0       -0.363404    1.976044   -2.636698
     31          9           0       -1.891729    3.222460   -1.651473
     32          9           0       -2.304890    1.098052   -2.071221
 ---------------------------------------------------------------------
                    Distance matrix (angstroms):
                    1          2          3          4          5
     1  C    0.000000
     2  C    1.498591   0.000000
     3  C    2.261481   1.547890   0.000000
     4  C    1.548526   2.370217   2.341227   0.000000
     5  H    1.070000   2.204654   3.285041   2.207540   0.000000
     6  H    1.070000   2.061995   2.432333   2.152225   1.736543
     7  H    2.155369   1.070000   2.186304   2.684352   2.575042
     8  H    2.163520   1.070000   2.220354   3.352641   2.640961
     9  H    2.462779   2.174575   1.070000   2.684640   3.507682
    10  H    3.263805   2.210958   1.070000   3.306858   4.236609
    11  H    2.125930   3.224033   2.986826   1.070000   2.680148
    12  N    2.396427   2.287400   1.464353   1.499939   3.314378
    13  C    3.205530   2.690426   2.333604   2.426322   3.890905
    14  O    4.411631   3.743222   3.096712   3.567153   5.142009
    15  O    3.192382   2.727553   3.145595   2.757148   3.504924
    16  C    4.565933   4.144278   4.458643   3.942373   4.765915
    17  C    5.176784   4.840826   5.541907   4.840556   5.067706
    18  H    6.208568   5.872966   6.477450   5.757253   6.104018
    19  H    5.224106   4.674260   5.542049   5.180327   5.086790
    20  H    4.876186   4.836460   5.663569   4.568893   4.588564
    21  C    5.549549   4.778737   4.849521   4.982147   5.913835
    22  H    6.522632   5.821894   5.895972   5.876799   6.822817
    23  H    5.527540   4.730653   4.458935   4.819951   6.066523
    24  H    5.593718   4.609927   4.849683   5.312870   5.930197
    25  C    5.073443   5.005654   5.047544   4.030187   5.294855
    26  H    5.049359   4.959770   4.673537   3.827865   5.464866
    27  H    6.122667   6.009551   6.059895   5.094839   6.293877
    28  H    4.766332   5.001431   5.180829   3.699487   4.838261
    29  C    2.609279   3.271520   3.541801   1.540000   2.752710
    30  F    2.953489   3.054327   3.601264   2.362224   3.028250
    31  F    3.764834   4.330832   4.200715   2.362224   4.045790
    32  F    2.990102   4.003443   4.555880   2.362224   2.666563
                    6          7          8          9         10
     6  H    0.000000
     7  H    2.986577   0.000000
     8  H    2.399926   1.724298   0.000000
     9  H    2.147987   3.066001   2.574755   0.000000
    10  H    3.437698   2.581163   2.632768   1.730016   0.000000
    11  H    2.292354   3.701787   4.099519   2.978725   3.980441
    12  N    2.860658   2.518024   3.282684   2.114845   2.123190
    13  C    3.960131   2.295750   3.660798   3.297853   2.522848
    14  O    5.077547   3.321428   4.607717   4.012612   2.884504
    15  O    4.177128   1.905008   3.606195   4.136862   3.448957
    16  C    5.567403   3.249909   4.971681   5.466438   4.608902
    17  C    6.240152   3.851774   5.507469   6.530046   5.765404
    18  H    7.269802   4.878239   6.547519   7.481239   6.633783
    19  H    6.265473   3.625529   5.158715   6.543042   5.679780
    20  H    5.942559   3.952100   5.522488   6.564454   6.072179
    21  C    6.466408   3.877569   5.484493   5.902028   4.649283
    22  H    7.464915   4.898632   6.528204   6.939840   5.690609
    23  H    6.339279   3.994622   5.483597   5.464409   4.143774
    24  H    6.490847   3.652922   5.134178   5.916404   4.542671
    25  C    6.011712   4.312443   5.972597   5.936150   5.315344
    26  H    5.874752   4.417989   5.971774   5.501246   4.879335
    27  H    7.074688   5.249592   6.943320   6.968883   6.246605
    28  H    5.702210   4.402283   5.986448   5.973980   5.646624
    29  C    3.471835   3.079401   4.273019   4.123310   4.333616
    30  F    3.984003   2.434729   3.983505   4.435314   4.173264
    31  F    4.489019   4.126218   5.385096   4.753003   4.861707
    32  F    3.766929   3.877768   4.858764   4.987434   5.450861
                   11         12         13         14         15
    11  H    0.000000
    12  N    2.187832   0.000000
    13  C    3.329553   1.470000   0.000000
    14  O    4.345186   2.365231   1.258400   0.000000
    15  O    3.781891   2.511553   1.430000   2.329803   0.000000
    16  C    4.870011   3.659178   2.335180   2.625089   1.430000
    17  C    5.763954   4.888509   3.700973   4.131968   2.425826
    18  H    6.636337   5.741945   4.474472   4.684172   3.344887
    19  H    6.175790   5.163841   3.992572   4.445832   2.666083
    20  H    5.401441   4.943767   3.992572   4.655067   2.666083
    21  C    5.928153   4.267093   2.797261   2.424058   2.425826
    22  H    6.779440   5.223074   3.761431   3.277860   3.344887
    23  H    5.694673   3.846862   2.447005   1.640956   2.666083
    24  H    6.329314   4.579936   3.173027   2.927169   2.666083
    25  C    4.715969   3.873833   2.797261   2.935424   2.425826
    26  H    4.418899   3.405415   2.447005   2.330964   2.666083
    27  H    5.749623   4.907036   3.761431   3.672196   3.344887
    28  H    4.265297   3.943336   3.173027   3.634996   2.666083
    29  C    2.139907   2.435188   2.505536   3.579061   2.267077
    30  F    3.267328   2.736901   2.117538   3.145902   1.163956
    31  F    2.621853   2.810197   2.768699   3.464905   2.907801
    32  F    2.597141   3.629785   3.817387   4.914048   3.316154
                   16         17         18         19         20
    16  C    0.000000
    17  C    1.540000   0.000000
    18  H    2.148263   1.070000   0.000000
    19  H    2.148263   1.070000   1.747303   0.000000
    20  H    2.148263   1.070000   1.747303   1.747303   0.000000
    21  C    1.540000   2.514809   2.732978   2.732978   3.444314
    22  H    2.148263   2.732978   2.514809   3.062243   3.710993
    23  H    2.148263   3.444314   3.710993   3.710993   4.262112
    24  H    2.148263   2.732978   3.062243   2.514810   3.710993
    25  C    1.540000   2.514809   2.732978   3.444314   2.732978
    26  H    2.148263   3.444314   3.710993   4.262112   3.710993
    27  H    2.148263   2.732978   2.514810   3.710993   3.062243
    28  H    2.148263   2.732978   3.062243   3.710993   2.514809
    29  C    3.033787   3.744354   4.564513   4.311444   3.326579
    30  F    1.889630   2.498551   3.416774   2.981302   2.259384
    31  F    3.222132   4.156251   4.742332   4.932452   3.856912
    32  F    3.955859   4.223760   5.009442   4.781756   3.487949
                   21         22         23         24         25
    21  C    0.000000
    22  H    1.070000   0.000000
    23  H    1.070000   1.747303   0.000000
    24  H    1.070000   1.747303   1.747303   0.000000
    25  C    2.514809   2.732978   2.732978   3.444314   0.000000
    26  H    2.732978   3.062243   2.514809   3.710993   1.070000
    27  H    2.732978   2.514809   3.062243   3.710993   1.070000
    28  H    3.444314   3.710993   3.710993   4.262112   1.070000
    29  C    4.365314   5.086311   4.427278   4.860487   2.868675
    30  F    3.287697   4.029955   3.583800   3.668017   2.315981
    31  F    4.408500   4.964893   4.305498   5.146799   2.414366
    32  F    5.423663   6.055615   5.637802   5.868659   3.743927
                   26         27         28         29         30
    26  H    0.000000
    27  H    1.747303   0.000000
    28  H    1.747303   1.747303   0.000000
    29  C    2.962115   3.878646   2.296789   0.000000
    30  F    2.720008   3.285629   2.055682   1.350000   0.000000
    31  F    2.220720   3.323319   1.852163   1.350000   2.204541
    32  F    4.047923   4.612087   2.888362   1.350000   2.204541
                   31         32
    31  F    0.000000
    32  F    2.204541   0.000000
 Stoichiometry    C10H16F3NO2
 Framework group  C1[X(C10H16F3NO2)]
 Deg. of freedom    90
 Full point group                 C1      NOp   1
 Largest Abelian subgroup         C1      NOp   1
 Largest concise Abelian subgroup C1      NOp   1
                         Standard orientation:                         
 ---------------------------------------------------------------------
 Center     Atomic      Atomic             Coordinates (Angstroms)
 Number     Number       Type             X           Y           Z
 ---------------------------------------------------------------------
      1          6           0        2.576732    0.164075    0.925877
      2          6           0        1.972142   -1.161781    1.275666
      3          6           0        2.177154   -1.801392   -0.118906
      4          6           0        1.870033    0.501265   -0.410092
      5          1           0        2.507881    0.942571    1.656701
      6          1           0        3.611276   -0.032866    0.736578
      7          1           0        0.936663   -1.094018    1.536608
      8          1           0        2.471335   -1.664378    2.077604
      9          1           0        3.213920   -1.822634   -0.382658
     10          1           0        1.796795   -2.798149   -0.200778
     11          1           0        2.580757    1.017065   -1.021420
     12          7           0        1.422281   -0.836145   -0.920651
     13          6           0        0.012516   -1.052062   -0.564501
     14          8           0       -0.701617   -1.820147   -1.259936
     15          8           0       -0.547373   -0.389280    0.572224
     16          6           0       -1.941332   -0.159258    0.351164
     17          6           0       -2.544289    0.554508    1.575330
     18          1           0       -3.587322    0.726622    1.409922
     19          1           0       -2.417121   -0.057710    2.443614
     20          1           0       -2.047363    1.490539    1.723010
     21          6           0       -2.656534   -1.506443    0.138616
     22          1           0       -3.699567   -1.334329   -0.026792
     23          1           0       -2.237597   -2.002371   -0.711941
     24          1           0       -2.529366   -2.118661    1.006900
     25          6           0       -2.124360    0.721878   -0.898516
     26          1           0       -1.705422    0.225950   -1.749072
     27          1           0       -3.167392    0.893992   -1.063924
     28          1           0       -1.627434    1.657909   -0.750836
     29          6           0        0.602534    1.366825   -0.284193
     30          9           0       -0.289883    0.744393    0.514975
     31          9           0        0.060119    1.550975   -1.506640
     32          9           0        0.926247    2.563878    0.249450
 ---------------------------------------------------------------------
 Rotational constants (GHZ):      0.8295001      0.5879118      0.4712146
 Standard basis: 6-311+G(d,p) (5D, 7F)
 There are   464 symmetry adapted cartesian basis functions of A   symmetry.
 There are   448 symmetry adapted basis functions of A   symmetry.
   448 basis functions,   704 primitive gaussians,   464 cartesian basis functions
    63 alpha electrons       63 beta electrons
       nuclear repulsion energy      1445.8820738091 Hartrees.
 NAtoms=   32 NActive=   32 NUniq=   32 SFac= 1.00D+00 NAtFMM=   60 NAOKFM=F Big=F
 Integral buffers will be    131072 words long.
 Raffenetti 2 integral format.
 Two-electron integral symmetry is turned on.
 One-electron integrals computed using PRISM.
 NBasis=   448 RedAO= T EigKep=  8.29D-06  NBF=   448
 NBsUse=   448 1.00D-06 EigRej= -1.00D+00 NBFU=   448
 ExpMin= 4.38D-02 ExpMax= 1.14D+04 ExpMxC= 1.72D+03 IAcc=2 IRadAn=         4 AccDes= 0.00D+00
 Harris functional with IExCor=  402 and IRadAn=       4 diagonalized for initial guess.
 HarFok:  IExCor=  402 AccDes= 0.00D+00 IRadAn=         4 IDoV= 1 UseB2=F ITyADJ=14
 ICtDFT=  3500011 ScaDFX=  1.000000  1.000000  1.000000  1.000000
 FoFCou: FMM=F IPFlag=           0 FMFlag=      100000 FMFlg1=           0
         NFxFlg=           0 DoJE=T BraDBF=F KetDBF=T FulRan=T
         wScrn=  0.000000 ICntrl=     500 IOpCl=  0 I1Cent=   200000004 NGrid=           0
         NMat0=    1 NMatS0=      1 NMatT0=    0 NMatD0=    1 NMtDS0=    0 NMtDT0=    0
 Petite list used in FoFCou.
 Requested convergence on RMS density matrix=1.00D-08 within 128 cycles.
 Requested convergence on MAX density matrix=1.00D-06.
 Requested convergence on             energy=1.00D-06.
 No special actions if energy rises.
 EnCoef did     2 forward-backward iterations
 EnCoef did     4 forward-backward iterations
 EnCoef did     5 forward-backward iterations
 EnCoef did     5 forward-backward iterations
 EnCoef did     5 forward-backward iterations
 EnCoef did     3 forward-backward iterations
 Restarting incremental Fock formation.
 SCF Done:  E(RB3LYP) =  -894.899223209     A.U. after   23 cycles
            NFock= 23  Conv=0.20D-08     -V/T= 1.9994

 **********************************************************************

            Population analysis using the SCF density.

 **********************************************************************

 Orbital symmetries:
       Occupied  (A) (A) (A) (A) (A) (A) (A) (A) (A) (A) (A) (A)
                 (A) (A) (A) (A) (A) (A) (A) (A) (A) (A) (A) (A)
                 (A) (A) (A) (A) (A) (A) (A) (A) (A) (A) (A) (A)
                 (A) (A) (A) (A) (A) (A) (A) (A) (A) (A) (A) (A)
                 (A) (A) (A) (A) (A) (A) (A) (A) (A) (A) (A) (A)
                 (A) (A) (A)
       Virtual   (A) (A) (A) (A) (A) (A) (A) (A) (A) (A) (A) (A)
                 (A) (A) (A) (A) (A) (A) (A) (A) (A) (A) (A) (A)
                 (A) (A) (A) (A) (A) (A) (A) (A) (A) (A) (A) (A)
                 (A) (A) (A) (A) (A) (A) (A) (A) (A) (A) (A) (A)
                 (A) (A) (A) (A) (A) (A) (A) (A) (A) (A) (A) (A)
                 (A) (A) (A) (A) (A) (A) (A) (A) (A) (A) (A) (A)
                 (A) (A) (A) (A) (A) (A) (A) (A) (A) (A) (A) (A)
                 (A) (A) (A) (A) (A) (A) (A) (A) (A) (A) (A) (A)
                 (A) (A) (A) (A) (A) (A) (A) (A) (A) (A) (A) (A)
                 (A) (A) (A) (A) (A) (A) (A) (A) (A) (A) (A) (A)
                 (A) (A) (A) (A) (A) (A) (A) (A) (A) (A) (A) (A)
                 (A) (A) (A) (A) (A) (A) (A) (A) (A) (A) (A) (A)
                 (A) (A) (A) (A) (A) (A) (A) (A) (A) (A) (A) (A)
                 (A) (A) (A) (A) (A) (A) (A) (A) (A) (A) (A) (A)
                 (A) (A) (A) (A) (A) (A) (A) (A) (A) (A) (A) (A)
                 (A) (A) (A) (A) (A) (A) (A) (A) (A) (A) (A) (A)
                 (A) (A) (A) (A) (A) (A) (A) (A) (A) (A) (A) (A)
                 (A) (A) (A) (A) (A) (A) (A) (A) (A) (A) (A) (A)
                 (A) (A) (A) (A) (A) (A) (A) (A) (A) (A) (A) (A)
                 (A) (A) (A) (A) (A) (A) (A) (A) (A) (A) (A) (A)
                 (A) (A) (A) (A) (A) (A) (A) (A) (A) (A) (A) (A)
                 (A) (A) (A) (A) (A) (A) (A) (A) (A) (A) (A) (A)
                 (A) (A) (A) (A) (A) (A) (A) (A) (A) (A) (A) (A)
                 (A) (A) (A) (A) (A) (A) (A) (A) (A) (A) (A) (A)
                 (A) (A) (A) (A) (A) (A) (A) (A) (A) (A) (A) (A)
                 (A) (A) (A) (A) (A) (A) (A) (A) (A) (A) (A) (A)
                 (A) (A) (A) (A) (A) (A) (A) (A) (A) (A) (A) (A)
                 (A) (A) (A) (A) (A) (A) (A) (A) (A) (A) (A) (A)
                 (A) (A) (A) (A) (A) (A) (A) (A) (A) (A) (A) (A)
                 (A) (A) (A) (A) (A) (A) (A) (A) (A) (A) (A) (A)
                 (A) (A) (A) (A) (A) (A) (A) (A) (A) (A) (A) (A)
                 (A) (A) (A) (A) (A) (A) (A) (A) (A) (A) (A) (A)
                 (A)
 The electronic state is 1-A.
 Alpha  occ. eigenvalues --  -24.86707 -24.74307 -24.73250 -19.32204 -19.03948
 Alpha  occ. eigenvalues --  -14.33862 -10.43870 -10.27174 -10.25050 -10.24255
 Alpha  occ. eigenvalues --  -10.19518 -10.18769 -10.18594 -10.17137 -10.16324
 Alpha  occ. eigenvalues --  -10.13650  -1.61102  -1.32255  -1.26047  -1.16155
 Alpha  occ. eigenvalues --   -1.00592  -0.95388  -0.88189  -0.87600  -0.80119
 Alpha  occ. eigenvalues --   -0.78324  -0.75829  -0.74593  -0.71133  -0.69919
 Alpha  occ. eigenvalues --   -0.68508  -0.64125  -0.62294  -0.60159  -0.59919
 Alpha  occ. eigenvalues --   -0.57285  -0.54314  -0.51937  -0.51142  -0.50232
 Alpha  occ. eigenvalues --   -0.48426  -0.48261  -0.47494  -0.46887  -0.45960
 Alpha  occ. eigenvalues --   -0.45278  -0.44076  -0.43330  -0.41867  -0.40715
 Alpha  occ. eigenvalues --   -0.39865  -0.39166  -0.38374  -0.37760  -0.37056
 Alpha  occ. eigenvalues --   -0.36307  -0.35909  -0.35001  -0.34890  -0.31524
 Alpha  occ. eigenvalues --   -0.25920  -0.22277  -0.08999
 Alpha virt. eigenvalues --   -0.01308  -0.00605   0.00278   0.01088   0.01729
 Alpha virt. eigenvalues --    0.02525   0.02697   0.03310   0.03537   0.04570
 Alpha virt. eigenvalues --    0.05078   0.05266   0.05716   0.06087   0.06486
 Alpha virt. eigenvalues --    0.07609   0.07913   0.08760   0.08958   0.09134
 Alpha virt. eigenvalues --    0.09607   0.09671   0.10171   0.10573   0.11102
 Alpha virt. eigenvalues --    0.11576   0.12041   0.12769   0.13228   0.13361
 Alpha virt. eigenvalues --    0.13651   0.13916   0.14407   0.14713   0.15199
 Alpha virt. eigenvalues --    0.15886   0.16207   0.16920   0.17405   0.17596
 Alpha virt. eigenvalues --    0.17797   0.18152   0.18624   0.18933   0.19020
 Alpha virt. eigenvalues --    0.19549   0.20255   0.20434   0.21019   0.21247
 Alpha virt. eigenvalues --    0.21573   0.22180   0.23008   0.23487   0.23797
 Alpha virt. eigenvalues --    0.24049   0.24424   0.24549   0.25455   0.25952
 Alpha virt. eigenvalues --    0.26534   0.27084   0.27274   0.28188   0.28597
 Alpha virt. eigenvalues --    0.29156   0.29894   0.30163   0.30391   0.31015
 Alpha virt. eigenvalues --    0.31884   0.32349   0.32954   0.33730   0.34222
 Alpha virt. eigenvalues --    0.34830   0.35420   0.36083   0.36426   0.36597
 Alpha virt. eigenvalues --    0.37560   0.38136   0.39306   0.39800   0.40604
 Alpha virt. eigenvalues --    0.40689   0.41600   0.42116   0.42131   0.43184
 Alpha virt. eigenvalues --    0.43502   0.44565   0.45672   0.46231   0.48282
 Alpha virt. eigenvalues --    0.48427   0.48994   0.50061   0.50745   0.51993
 Alpha virt. eigenvalues --    0.52267   0.53061   0.54278   0.55422   0.56154
 Alpha virt. eigenvalues --    0.57567   0.58596   0.59638   0.60746   0.60775
 Alpha virt. eigenvalues --    0.61710   0.62092   0.62901   0.64490   0.64687
 Alpha virt. eigenvalues --    0.65194   0.66376   0.67267   0.67569   0.68164
 Alpha virt. eigenvalues --    0.68734   0.69383   0.69761   0.70555   0.71429
 Alpha virt. eigenvalues --    0.72163   0.72383   0.73576   0.73856   0.74446
 Alpha virt. eigenvalues --    0.75128   0.75956   0.76673   0.77862   0.78601
 Alpha virt. eigenvalues --    0.78969   0.79517   0.81400   0.82437   0.84514
 Alpha virt. eigenvalues --    0.86044   0.88506   0.89322   0.93010   0.94451
 Alpha virt. eigenvalues --    0.95354   0.97587   0.99824   1.00799   1.03265
 Alpha virt. eigenvalues --    1.05417   1.06624   1.08172   1.09114   1.10710
 Alpha virt. eigenvalues --    1.11456   1.14255   1.14438   1.15738   1.17214
 Alpha virt. eigenvalues --    1.19103   1.20251   1.23852   1.25335   1.26891
 Alpha virt. eigenvalues --    1.28836   1.29849   1.30723   1.32879   1.33780
 Alpha virt. eigenvalues --    1.34681   1.37914   1.39367   1.40270   1.42927
 Alpha virt. eigenvalues --    1.43562   1.43690   1.44668   1.46085   1.46753
 Alpha virt. eigenvalues --    1.47036   1.47679   1.48277   1.49482   1.50395
 Alpha virt. eigenvalues --    1.51346   1.51858   1.53217   1.54337   1.54827
 Alpha virt. eigenvalues --    1.56120   1.56827   1.57217   1.58539   1.59620
 Alpha virt. eigenvalues --    1.60002   1.61412   1.62508   1.63167   1.64336
 Alpha virt. eigenvalues --    1.64622   1.66699   1.67131   1.67762   1.69516
 Alpha virt. eigenvalues --    1.70103   1.70722   1.72216   1.73448   1.73613
 Alpha virt. eigenvalues --    1.75964   1.77421   1.78014   1.78717   1.79981
 Alpha virt. eigenvalues --    1.80675   1.81287   1.83211   1.83752   1.84481
 Alpha virt. eigenvalues --    1.86364   1.88023   1.88528   1.88750   1.90167
 Alpha virt. eigenvalues --    1.92687   1.93635   1.94706   1.95848   1.96414
 Alpha virt. eigenvalues --    1.96809   1.99933   2.00844   2.01548   2.03840
 Alpha virt. eigenvalues --    2.06023   2.08101   2.09086   2.12934   2.13578
 Alpha virt. eigenvalues --    2.15480   2.16315   2.18560   2.21065   2.21931
 Alpha virt. eigenvalues --    2.25155   2.25907   2.26444   2.29100   2.31314
 Alpha virt. eigenvalues --    2.31880   2.33409   2.35830   2.38397   2.40178
 Alpha virt. eigenvalues --    2.42904   2.43339   2.46534   2.48846   2.49825
 Alpha virt. eigenvalues --    2.50758   2.52083   2.53940   2.55502   2.56045
 Alpha virt. eigenvalues --    2.56744   2.57322   2.59153   2.59976   2.61388
 Alpha virt. eigenvalues --    2.61562   2.63349   2.64404   2.65155   2.67145
 Alpha virt. eigenvalues --    2.68824   2.69404   2.70378   2.72364   2.73596
 Alpha virt. eigenvalues --    2.74540   2.75509   2.77299   2.78639   2.79569
 Alpha virt. eigenvalues --    2.81207   2.82148   2.83481   2.85017   2.87687
 Alpha virt. eigenvalues --    2.89217   2.89811   2.92386   2.94425   2.94976
 Alpha virt. eigenvalues --    2.99675   3.01335   3.03005   3.03602   3.07592
 Alpha virt. eigenvalues --    3.08994   3.10319   3.12672   3.14025   3.15207
 Alpha virt. eigenvalues --    3.17231   3.18487   3.20622   3.24547   3.26118
 Alpha virt. eigenvalues --    3.31604   3.40143   3.40924   3.48990   3.52843
 Alpha virt. eigenvalues --    3.54206   3.58830   3.62300   3.68643   3.73126
 Alpha virt. eigenvalues --    3.75619   3.77304   3.78464   3.80701   3.82279
 Alpha virt. eigenvalues --    3.82571   3.83149   3.84292   3.86809   3.88673
 Alpha virt. eigenvalues --    3.89470   3.90501   3.92623   3.93845   3.94638
 Alpha virt. eigenvalues --    3.99372   3.99621   4.04780   4.12271   4.13464
 Alpha virt. eigenvalues --    4.15215   4.17515   4.19181   4.22953   4.27575
 Alpha virt. eigenvalues --    4.28544   4.36173   4.38484   4.54632   4.61552
 Alpha virt. eigenvalues --    4.81179   4.83731   4.90965   4.96112   5.22275
 Alpha virt. eigenvalues --    5.33576   5.37077   5.62286   5.68431   5.91406
 Alpha virt. eigenvalues --    6.35815   6.38162   6.43052   6.45445   6.47103
 Alpha virt. eigenvalues --    6.51165   6.64300   6.78529   7.26734  23.61404
 Alpha virt. eigenvalues --   23.77693  23.84473  23.91217  23.92683  24.00701
 Alpha virt. eigenvalues --   24.01485  24.06332  24.08745  24.11155  35.61860
 Alpha virt. eigenvalues --   49.91925  50.09872  66.76313  66.79015  66.84821
          Condensed to atoms (all electrons):
               1          2          3          4          5          6
     1  C    7.750118  -1.029202   0.329714  -1.183097   0.424018   0.353274
     2  C   -1.029202   7.225949  -0.332586  -0.829072  -0.022637   0.039849
     3  C    0.329714  -0.332586   6.978191  -1.154699   0.010216  -0.008452
     4  C   -1.183097  -0.829072  -1.154699  12.288375  -0.129497  -0.067815
     5  H    0.424018  -0.022637   0.010216  -0.129497   0.506155  -0.018169
     6  H    0.353274   0.039849  -0.008452  -0.067815  -0.018169   0.533430
     7  H   -0.025974   0.430406  -0.008563   0.027241  -0.004674   0.004186
     8  H    0.019809   0.326576  -0.033419   0.019677   0.000293  -0.010207
     9  H    0.000543  -0.085991   0.325751   0.120943   0.000814  -0.003426
    10  H    0.008767  -0.039075   0.477278  -0.031959  -0.000341   0.001426
    11  H   -0.034002   0.046268   0.011665   0.199389   0.005774  -0.007008
    12  N    0.108786  -0.080625   0.228130  -0.364101   0.023360  -0.016913
    13  C    0.413974  -0.437612  -0.444362  -0.601682  -0.003359  -0.009404
    14  O   -0.033801   0.120902  -0.080359  -0.060765  -0.000017   0.000640
    15  O   -0.287092   0.894582   0.361908  -2.706960   0.011510   0.018735
    16  C    0.095802  -0.551752   0.075451   1.458441  -0.007527  -0.007482
    17  C   -0.046650   0.082953  -0.001092  -0.089082  -0.001097   0.000025
    18  H   -0.000314   0.000482   0.000384  -0.003481   0.000004   0.000000
    19  H    0.002093  -0.003225  -0.000760   0.002621  -0.000001  -0.000002
    20  H   -0.001598   0.004040   0.000039  -0.008038   0.000015   0.000008
    21  C    0.023483  -0.098833   0.004941   0.067019   0.000315  -0.000546
    22  H    0.000318   0.000549  -0.000925   0.003905  -0.000001   0.000000
    23  H   -0.001779   0.000916   0.009014  -0.008429   0.000001   0.000004
    24  H    0.001547  -0.004897   0.001893  -0.003057   0.000002   0.000000
    25  C    0.034724   0.063834  -0.125525  -0.207115   0.002559   0.000793
    26  H    0.001176  -0.004203   0.000679   0.015895   0.000005  -0.000007
    27  H   -0.000359   0.000535   0.000333  -0.003320   0.000003   0.000000
    28  H   -0.004105   0.009020  -0.002422  -0.027319   0.000041   0.000016
    29  C   -0.736370   1.190122  -0.000155  -3.479612   0.050446   0.049758
    30  F    0.120901  -0.659056  -0.330140   2.526484  -0.009332  -0.011583
    31  F    0.041273  -0.036699  -0.013123   0.098000  -0.000363  -0.001017
    32  F   -0.064875  -0.009377  -0.003586   0.131739   0.001924  -0.000272
               7          8          9         10         11         12
     1  C   -0.025974   0.019809   0.000543   0.008767  -0.034002   0.108786
     2  C    0.430406   0.326576  -0.085991  -0.039075   0.046268  -0.080625
     3  C   -0.008563  -0.033419   0.325751   0.477278   0.011665   0.228130
     4  C    0.027241   0.019677   0.120943  -0.031959   0.199389  -0.364101
     5  H   -0.004674   0.000293   0.000814  -0.000341   0.005774   0.023360
     6  H    0.004186  -0.010207  -0.003426   0.001426  -0.007008  -0.016913
     7  H    0.501195  -0.026338   0.003420  -0.006249  -0.000788  -0.010209
     8  H   -0.026338   0.529024   0.000425  -0.001048   0.000036   0.030443
     9  H    0.003420   0.000425   0.558116  -0.031076  -0.000697  -0.044131
    10  H   -0.006249  -0.001048  -0.031076   0.488502   0.000171  -0.063850
    11  H   -0.000788   0.000036  -0.000697   0.000171   0.515367   0.016935
    12  N   -0.010209   0.030443  -0.044131  -0.063850   0.016935   7.382635
    13  C   -0.010572   0.001377   0.052164  -0.012539  -0.001668   0.056326
    14  O    0.000119  -0.001347  -0.002786   0.015906   0.000639   0.069498
    15  O   -0.066746  -0.015632  -0.011541   0.024309   0.039312  -0.829252
    16  C    0.058091   0.010498   0.004738  -0.010809  -0.031400   0.171729
    17  C   -0.010027  -0.001068  -0.000809   0.000983   0.002229  -0.049171
    18  H   -0.000091   0.000000   0.000000   0.000000   0.000002   0.000483
    19  H   -0.000138   0.000013   0.000001  -0.000001  -0.000005  -0.000154
    20  H   -0.000149  -0.000020  -0.000001   0.000003   0.000015  -0.001111
    21  C   -0.006866   0.001238   0.000660  -0.002644  -0.000809   0.073391
    22  H    0.000016   0.000000   0.000001  -0.000011  -0.000001   0.000492
    23  H   -0.000529  -0.000030  -0.000043   0.000320   0.000009  -0.013024
    24  H    0.000435   0.000009   0.000002  -0.000020   0.000002   0.000057
    25  C   -0.002361  -0.001305   0.001574   0.001386   0.002380  -0.083298
    26  H    0.000127   0.000006   0.000013  -0.000012  -0.000013   0.001759
    27  H   -0.000010   0.000000   0.000000   0.000001   0.000020   0.001573
    28  H   -0.000523  -0.000007  -0.000009   0.000021   0.000471   0.004154
    29  C   -0.042725  -0.001538  -0.030030   0.014402   0.100031   0.098942
    30  F    0.046351   0.008049   0.006656  -0.007814  -0.030803   0.240064
    31  F    0.001073   0.000021   0.000321  -0.000089  -0.019508  -0.027561
    32  F    0.000456  -0.000077  -0.000109   0.000065  -0.005667  -0.012347
              13         14         15         16         17         18
     1  C    0.413974  -0.033801  -0.287092   0.095802  -0.046650  -0.000314
     2  C   -0.437612   0.120902   0.894582  -0.551752   0.082953   0.000482
     3  C   -0.444362  -0.080359   0.361908   0.075451  -0.001092   0.000384
     4  C   -0.601682  -0.060765  -2.706960   1.458441  -0.089082  -0.003481
     5  H   -0.003359  -0.000017   0.011510  -0.007527  -0.001097   0.000004
     6  H   -0.009404   0.000640   0.018735  -0.007482   0.000025   0.000000
     7  H   -0.010572   0.000119  -0.066746   0.058091  -0.010027  -0.000091
     8  H    0.001377  -0.001347  -0.015632   0.010498  -0.001068   0.000000
     9  H    0.052164  -0.002786  -0.011541   0.004738  -0.000809   0.000000
    10  H   -0.012539   0.015906   0.024309  -0.010809   0.000983   0.000000
    11  H   -0.001668   0.000639   0.039312  -0.031400   0.002229   0.000002
    12  N    0.056326   0.069498  -0.829252   0.171729  -0.049171   0.000483
    13  C    8.238434   0.116348   0.983272  -0.967595   0.085409   0.004400
    14  O    0.116348   8.519717  -0.194090  -0.043489   0.012382  -0.000753
    15  O    0.983272  -0.194090  21.140024  -5.226556   0.083240   0.033480
    16  C   -0.967595  -0.043489  -5.226556  12.387193  -0.483143  -0.073020
    17  C    0.085409   0.012382   0.083240  -0.483143   6.274749   0.457100
    18  H    0.004400  -0.000753   0.033480  -0.073020   0.457100   0.494890
    19  H   -0.007735  -0.000262  -0.032202  -0.009379   0.367163  -0.021802
    20  H    0.000336   0.000486   0.031748  -0.044126   0.392574  -0.023093
    21  C   -0.019459  -0.229530  -0.748009   0.147548  -0.377560  -0.022135
    22  H    0.019106   0.013360  -0.002403  -0.020274  -0.058819  -0.000166
    23  H    0.018275  -0.022316   0.052054  -0.085066   0.012774   0.000506
    24  H   -0.014007  -0.002202   0.017835   0.022865  -0.012097  -0.000458
    25  C   -0.084738  -0.007104   1.299558  -1.730783  -0.358055  -0.010280
    26  H    0.015601  -0.002275  -0.024002  -0.035934  -0.007920   0.000242
    27  H    0.013675   0.000561   0.037086  -0.085756  -0.039756   0.001775
    28  H   -0.010555   0.002109  -0.040518   0.017426   0.090219   0.000259
    29  C    0.060209   0.079677   3.632644  -1.798706   0.230074   0.007843
    30  F   -1.017722   0.055915  -9.815662   2.991427  -0.139248  -0.015363
    31  F   -0.113094  -0.003197  -0.316736   0.005310  -0.016724  -0.000553
    32  F    0.045842  -0.001196  -0.078056  -0.002795  -0.008741  -0.000130
              19         20         21         22         23         24
     1  C    0.002093  -0.001598   0.023483   0.000318  -0.001779   0.001547
     2  C   -0.003225   0.004040  -0.098833   0.000549   0.000916  -0.004897
     3  C   -0.000760   0.000039   0.004941  -0.000925   0.009014   0.001893
     4  C    0.002621  -0.008038   0.067019   0.003905  -0.008429  -0.003057
     5  H   -0.000001   0.000015   0.000315  -0.000001   0.000001   0.000002
     6  H   -0.000002   0.000008  -0.000546   0.000000   0.000004   0.000000
     7  H   -0.000138  -0.000149  -0.006866   0.000016  -0.000529   0.000435
     8  H    0.000013  -0.000020   0.001238   0.000000  -0.000030   0.000009
     9  H    0.000001  -0.000001   0.000660   0.000001  -0.000043   0.000002
    10  H   -0.000001   0.000003  -0.002644  -0.000011   0.000320  -0.000020
    11  H   -0.000005   0.000015  -0.000809  -0.000001   0.000009   0.000002
    12  N   -0.000154  -0.001111   0.073391   0.000492  -0.013024   0.000057
    13  C   -0.007735   0.000336  -0.019459   0.019106   0.018275  -0.014007
    14  O   -0.000262   0.000486  -0.229530   0.013360  -0.022316  -0.002202
    15  O   -0.032202   0.031748  -0.748009  -0.002403   0.052054   0.017835
    16  C   -0.009379  -0.044126   0.147548  -0.020274  -0.085066   0.022865
    17  C    0.367163   0.392574  -0.377560  -0.058819   0.012774  -0.012097
    18  H   -0.021802  -0.023093  -0.022135  -0.000166   0.000506  -0.000458
    19  H    0.514859  -0.026086   0.008751  -0.000573   0.000074   0.002486
    20  H   -0.026086   0.525867  -0.001462   0.000146  -0.000250   0.000000
    21  C    0.008751  -0.001462   6.454462   0.421828   0.456567   0.320086
    22  H   -0.000573   0.000146   0.421828   0.566933  -0.027400  -0.030104
    23  H    0.000074  -0.000250   0.456567  -0.027400   0.418567  -0.015654
    24  H    0.002486   0.000000   0.320086  -0.030104  -0.015654   0.544792
    25  C    0.030122  -0.017688  -0.287271  -0.009241  -0.013349   0.048456
    26  H   -0.000369  -0.000207   0.026853  -0.001247   0.000937  -0.000262
    27  H    0.000109  -0.000194  -0.013237  -0.001830  -0.000092   0.000351
    28  H   -0.000614   0.004670  -0.006093   0.000066   0.000055  -0.000655
    29  C   -0.007163   0.027900  -0.188670  -0.005325   0.006722   0.000659
    30  F    0.019863  -0.009435   0.435984   0.004697  -0.027021  -0.010381
    31  F    0.000395  -0.000829   0.002481   0.000231  -0.000145   0.000015
    32  F    0.000082  -0.000065   0.003283   0.000001  -0.000009  -0.000004
              25         26         27         28         29         30
     1  C    0.034724   0.001176  -0.000359  -0.004105  -0.736370   0.120901
     2  C    0.063834  -0.004203   0.000535   0.009020   1.190122  -0.659056
     3  C   -0.125525   0.000679   0.000333  -0.002422  -0.000155  -0.330140
     4  C   -0.207115   0.015895  -0.003320  -0.027319  -3.479612   2.526484
     5  H    0.002559   0.000005   0.000003   0.000041   0.050446  -0.009332
     6  H    0.000793  -0.000007   0.000000   0.000016   0.049758  -0.011583
     7  H   -0.002361   0.000127  -0.000010  -0.000523  -0.042725   0.046351
     8  H   -0.001305   0.000006   0.000000  -0.000007  -0.001538   0.008049
     9  H    0.001574   0.000013   0.000000  -0.000009  -0.030030   0.006656
    10  H    0.001386  -0.000012   0.000001   0.000021   0.014402  -0.007814
    11  H    0.002380  -0.000013   0.000020   0.000471   0.100031  -0.030803
    12  N   -0.083298   0.001759   0.001573   0.004154   0.098942   0.240064
    13  C   -0.084738   0.015601   0.013675  -0.010555   0.060209  -1.017722
    14  O   -0.007104  -0.002275   0.000561   0.002109   0.079677   0.055915
    15  O    1.299558  -0.024002   0.037086  -0.040518   3.632644  -9.815662
    16  C   -1.730783  -0.035934  -0.085756   0.017426  -1.798706   2.991427
    17  C   -0.358055  -0.007920  -0.039756   0.090219   0.230074  -0.139248
    18  H   -0.010280   0.000242   0.001775   0.000259   0.007843  -0.015363
    19  H    0.030122  -0.000369   0.000109  -0.000614  -0.007163   0.019863
    20  H   -0.017688  -0.000207  -0.000194   0.004670   0.027900  -0.009435
    21  C   -0.287271   0.026853  -0.013237  -0.006093  -0.188670   0.435984
    22  H   -0.009241  -0.001247  -0.001830   0.000066  -0.005325   0.004697
    23  H   -0.013349   0.000937  -0.000092   0.000055   0.006722  -0.027021
    24  H    0.048456  -0.000262   0.000351  -0.000655   0.000659  -0.010381
    25  C    7.009629   0.413477   0.466354   0.231846  -0.064299  -0.395516
    26  H    0.413477   0.416871  -0.015452  -0.016768  -0.034942   0.024769
    27  H    0.466354  -0.015452   0.498622  -0.019661   0.013633  -0.017950
    28  H    0.231846  -0.016768  -0.019661   0.566829   0.098797   0.031968
    29  C   -0.064299  -0.034942   0.013633   0.098797  11.577140  -4.052430
    30  F   -0.395516   0.024769  -0.017950   0.031968  -4.052430  17.744622
    31  F    0.102850  -0.011577   0.001321  -0.047328  -0.303484   0.393948
    32  F    0.002969   0.000640   0.000015  -0.004694  -0.052952   0.120961
              31         32
     1  C    0.041273  -0.064875
     2  C   -0.036699  -0.009377
     3  C   -0.013123  -0.003586
     4  C    0.098000   0.131739
     5  H   -0.000363   0.001924
     6  H   -0.001017  -0.000272
     7  H    0.001073   0.000456
     8  H    0.000021  -0.000077
     9  H    0.000321  -0.000109
    10  H   -0.000089   0.000065
    11  H   -0.019508  -0.005667
    12  N   -0.027561  -0.012347
    13  C   -0.113094   0.045842
    14  O   -0.003197  -0.001196
    15  O   -0.316736  -0.078056
    16  C    0.005310  -0.002795
    17  C   -0.016724  -0.008741
    18  H   -0.000553  -0.000130
    19  H    0.000395   0.000082
    20  H   -0.000829  -0.000065
    21  C    0.002481   0.003283
    22  H    0.000231   0.000001
    23  H   -0.000145  -0.000009
    24  H    0.000015  -0.000004
    25  C    0.102850   0.002969
    26  H   -0.011577   0.000640
    27  H    0.001321   0.000015
    28  H   -0.047328  -0.004694
    29  C   -0.303484  -0.052952
    30  F    0.393948   0.120961
    31  F    9.220583  -0.040198
    32  F   -0.040198   8.987504
 Mulliken charges:
               1
     1  C   -0.281102
     2  C   -0.212143
     3  C   -0.275419
     4  C   -0.000631
     5  H    0.159562
     6  H    0.160155
     7  H    0.150416
     8  H    0.144541
     9  H    0.134506
    10  H    0.173994
    11  H    0.191657
    12  N    0.086992
    13  C   -0.368647
    14  O   -0.322770
    15  O   -0.265840
    16  C   -0.230927
    17  C   -0.390814
    18  H    0.169789
    19  H    0.161837
    20  H    0.146507
    21  C   -0.445766
    22  H    0.126671
    23  H    0.238341
    24  H    0.132307
    25  C   -0.314582
    26  H    0.236137
    27  H    0.161652
    28  H    0.123306
    29  C   -0.440598
    30  F    0.776793
    31  F    0.084405
    32  F   -0.010328
 Sum of Mulliken charges =   0.00000
 Mulliken charges with hydrogens summed into heavy atoms:
               1
     1  C    0.038615
     2  C    0.082815
     3  C    0.033081
     4  C    0.191027
    12  N    0.086992
    13  C   -0.368647
    14  O   -0.322770
    15  O   -0.265840
    16  C   -0.230927
    17  C    0.087318
    21  C    0.051554
    25  C    0.206512
    29  C   -0.440598
    30  F    0.776793
    31  F    0.084405
    32  F   -0.010328
 Electronic spatial extent (au):  <R**2>=           2769.7958
 Charge=              0.0000 electrons
 Dipole moment (field-independent basis, Debye):
    X=              0.5552    Y=              2.4456    Z=              4.1205  Tot=              4.8236
 Quadrupole moment (field-independent basis, Debye-Ang):
   XX=            -84.7296   YY=           -105.6996   ZZ=           -102.2155
   XY=             -5.0289   XZ=             -1.4158   YZ=             -6.3113
 Traceless Quadrupole moment (field-independent basis, Debye-Ang):
   XX=             12.8187   YY=             -8.1514   ZZ=             -4.6673
   XY=             -5.0289   XZ=             -1.4158   YZ=             -6.3113
 Octapole moment (field-independent basis, Debye-Ang**2):
  XXX=              3.1033  YYY=             21.1519  ZZZ=              6.6722  XYY=              6.4245
  XXY=             10.1408  XXZ=             -0.9633  XZZ=             -2.0492  YZZ=             17.1058
  YYZ=              8.7398  XYZ=              0.2970
 Hexadecapole moment (field-independent basis, Debye-Ang**3):
 XXXX=          -1865.4406 YYYY=          -1088.5100 ZZZZ=           -624.9930 XXXY=            -11.8222
 XXXZ=             -4.4713 YYYX=            -16.7848 YYYZ=            -26.2922 ZZZX=              2.2173
 ZZZY=            -24.1335 XXYY=           -504.5260 XXZZ=           -428.8633 YYZZ=           -294.2615
 XXYZ=             -7.3950 YYXZ=             -6.9458 ZZXY=              4.8230
 N-N= 1.445882073809D+03 E-N=-4.994600040684D+03  KE= 8.954504335046D+02
 There are a total of      264826 grid points.
 ElSum from          density=      125.9999315518
 ElSum from atomic densities=      125.9998996168

 Hirshfeld populations at iteration   1 (CX, CA, CB, DipXYZ):
               1          2          3          4          5          6
     1  C    0.000000   3.037915   3.037915   0.029100   0.004771   0.005113
     2  C    0.000000   3.042855   3.042855   0.021285  -0.028093   0.027278
     3  C    0.000000   3.005962   3.005962   0.016054  -0.022805  -0.028194
     4  C    0.000000   2.998967   2.998967   0.032929  -0.028533  -0.025002
     5  H    0.000002   0.485072   0.485072   0.010022   0.087717   0.105558
     6  H    0.000002   0.478399   0.478399   0.149022  -0.032406  -0.018602
     7  H    0.000000   0.493327   0.493327  -0.095409  -0.007963   0.061152
     8  H    0.000002   0.482492   0.482492   0.067811  -0.073472   0.109855
     9  H    0.000002   0.481938   0.481938   0.134698  -0.010996  -0.037858
    10  H    0.000001   0.475121   0.475121  -0.034867  -0.150316  -0.003826
    11  H    0.000004   0.475851   0.475851   0.115494   0.052881  -0.081170
    12  N    0.000001   3.571173   3.571173   0.032088   0.002290   0.129252
    13  C    0.000000   2.961701   2.961701  -0.009019   0.040855   0.113315
    14  O    0.000004   4.170761   4.170761  -0.052202   0.087903   0.125604
    15  O    0.000000   3.968521   3.968521   0.001222   0.102491  -0.044863
    16  C    0.000000   2.958853   2.958853   0.082640  -0.033989   0.024418
    17  C    0.000000   3.054462   3.054462  -0.054655  -0.008518   0.002763
    18  H    0.000001   0.471995   0.471995  -0.159270   0.029894  -0.016437
    19  H    0.000001   0.479449   0.479449   0.007205  -0.087348   0.128037
    20  H    0.000002   0.489058   0.489058   0.033081   0.118449   0.027176
    21  C    0.000000   3.066159   3.066159  -0.021934   0.010092   0.003006
    22  H    0.000001   0.484828   0.484828  -0.141225   0.013633  -0.034652
    23  H    0.000001   0.486249   0.486249  -0.006163  -0.072537  -0.092546
    24  H    0.000001   0.485863   0.485863   0.012659  -0.093757   0.111156
    25  C    0.000000   3.065700   3.065700  -0.074500  -0.018578  -0.021917
    26  H    0.000001   0.481787   0.481787   0.020983  -0.045056  -0.129419
    27  H    0.000001   0.476009   0.476009  -0.152985   0.027443  -0.037127
    28  H    0.000001   0.497137   0.497137   0.021695   0.115663   0.008661
    29  C    0.000000   2.899862   2.899862  -0.076440  -0.007114   0.016406
    30  F    0.000000   4.400602   4.400602  -0.022507  -0.091343  -0.019822
    31  F    0.000005   4.522943   4.522943  -0.013832  -0.041778   0.069089
    32  F    0.000029   4.548954   4.548954   0.002548  -0.105873  -0.045499
       Tot   0.000061  62.999966  62.999966  -0.124469  -0.266393   0.430906

 Dip from Atomic Chgs              0.342098   1.227756   1.190299
         Total Dipole              0.217629   0.961362   1.621204

 Hirshfeld charges, spin densities, dipoles, and CM5 charges using IRadAn=      4:
              Q-H        S-H        Dx         Dy         Dz        Q-CM5   
     1  C   -0.075829   0.000000   0.029100   0.004771   0.005113  -0.183472
     2  C   -0.085709   0.000000   0.021285  -0.028093   0.027278  -0.192182
     3  C   -0.011925   0.000000   0.016054  -0.022805  -0.028194  -0.065252
     4  C    0.002066   0.000000   0.032929  -0.028533  -0.025002  -0.010185
     5  H    0.029856   0.000000   0.010022   0.087717   0.105558   0.086758
     6  H    0.043203   0.000000   0.149022  -0.032406  -0.018602   0.104910
     7  H    0.013345   0.000000  -0.095409  -0.007963   0.061152   0.093508
     8  H    0.035015   0.000000   0.067811  -0.073472   0.109855   0.092653
     9  H    0.036125   0.000000   0.134698  -0.010996  -0.037858   0.104409
    10  H    0.049758   0.000000  -0.034867  -0.150316  -0.003826   0.118217
    11  H    0.048297   0.000000   0.115494   0.052881  -0.081170   0.114468
    12  N   -0.142347   0.000000   0.032088   0.002290   0.129252  -0.364278
    13  C    0.076599   0.000000  -0.009019   0.040855   0.113315   0.172662
    14  O   -0.341521   0.000000  -0.052202   0.087903   0.125604  -0.415992
    15  O    0.062958   0.000000   0.001222   0.102491  -0.044863   0.000069
    16  C    0.082294   0.000000   0.082640  -0.033989   0.024418   0.068196
    17  C   -0.108925   0.000000  -0.054655  -0.008518   0.002763  -0.262402
    18  H    0.056010   0.000000  -0.159270   0.029894  -0.016437   0.111682
    19  H    0.041101   0.000000   0.007205  -0.087348   0.128037   0.097876
    20  H    0.021885   0.000000   0.033081   0.118449   0.027176   0.076597
    21  C   -0.132319   0.000000  -0.021934   0.010092   0.003006  -0.283031
    22  H    0.030344   0.000000  -0.141225   0.013633  -0.034652   0.086706
    23  H    0.027501   0.000000  -0.006163  -0.072537  -0.092546   0.117352
    24  H    0.028274   0.000000   0.012659  -0.093757   0.111156   0.086903
    25  C   -0.131399   0.000000  -0.074500  -0.018578  -0.021917  -0.286172
    26  H    0.036426   0.000000   0.020983  -0.045056  -0.129419   0.098266
    27  H    0.047982   0.000000  -0.152985   0.027443  -0.037127   0.103713
    28  H    0.005726   0.000000   0.021695   0.115663   0.008661   0.054477
    29  C    0.200276   0.000000  -0.076440  -0.007114   0.016406   0.145094
    30  F    0.198797   0.000000  -0.022507  -0.091343  -0.019822   0.218066
    31  F   -0.045886   0.000000  -0.013832  -0.041778   0.069089  -0.014466
    32  F   -0.097908   0.000000   0.002548  -0.105873  -0.045499  -0.075080
       Tot   0.000068   0.000000  -0.124469  -0.266393   0.430906   0.000068
 Hirshfeld charges with hydrogens summed into heavy atoms:
              Q-H       Q-CM5   
     1  C   -0.002771   0.008196
     2  C   -0.037348  -0.006021
     3  C    0.073958   0.157374
     4  C    0.050363   0.104282
    12  N   -0.142347  -0.364278
    13  C    0.076599   0.172662
    14  O   -0.341521  -0.415992
    15  O    0.062958   0.000069
    16  C    0.082294   0.068196
    17  C    0.010071   0.023753
    21  C   -0.046200   0.007929
    25  C   -0.041265  -0.029716
    29  C    0.200276   0.145094
    30  F    0.198797   0.218066
    31  F   -0.045886  -0.014466
    32  F   -0.097908  -0.075080
 
 EQQ= 0.000000000000E+00 EQD= 0.000000000000E+00 EDD= 0.434483782362E-02
 EQQ+QD+DD= 0.434483782362E-02
 
          MBS Condensed to atoms (all electrons):
               1          2          3          4          5          6
     1  C    4.881423   0.369897  -0.050218   0.349893   0.374247   0.384155
     2  C    0.369897   4.888917   0.363584  -0.041078  -0.017584  -0.029340
     3  C   -0.050218   0.363584   4.801416  -0.049361   0.002527  -0.006310
     4  C    0.349893  -0.041078  -0.049361   4.817844  -0.020169  -0.020186
     5  H    0.374247  -0.017584   0.002527  -0.020169   0.590027  -0.023807
     6  H    0.384155  -0.029340  -0.006310  -0.020186  -0.023807   0.593258
     7  H   -0.022633   0.380350  -0.020204  -0.002242  -0.002096   0.002601
     8  H   -0.019642   0.374878  -0.016749   0.002166  -0.000653  -0.003432
     9  H   -0.006519  -0.024812   0.370026  -0.000834   0.000091   0.000827
    10  H    0.002020  -0.019177   0.383534   0.002344  -0.000064   0.000133
    11  H   -0.027609   0.001616   0.001725   0.369780   0.001222  -0.005221
    12  N   -0.031949  -0.041729   0.312500   0.305966   0.001132  -0.000055
    13  C   -0.000511  -0.007129  -0.043814  -0.030181  -0.000025   0.000038
    14  O   -0.000006   0.000000  -0.000101   0.000465   0.000000   0.000000
    15  O   -0.000182  -0.007736   0.000511  -0.001362   0.000128  -0.000007
    16  C   -0.000007   0.000185  -0.000018  -0.000043  -0.000001   0.000000
    17  C    0.000000  -0.000001   0.000000  -0.000005   0.000000   0.000000
    18  H    0.000000   0.000000   0.000000   0.000000   0.000000   0.000000
    19  H    0.000000  -0.000005   0.000000   0.000000   0.000000   0.000000
    20  H   -0.000001   0.000001   0.000000   0.000002   0.000002   0.000000
    21  C    0.000000  -0.000002   0.000000   0.000004   0.000000   0.000000
    22  H    0.000000   0.000000   0.000000   0.000000   0.000000   0.000000
    23  H    0.000000   0.000000  -0.000003  -0.000005   0.000000   0.000000
    24  H    0.000000  -0.000005   0.000000   0.000000   0.000000   0.000000
    25  C    0.000001  -0.000005  -0.000001  -0.000055   0.000000   0.000000
    26  H    0.000001  -0.000001  -0.000001  -0.000009   0.000000   0.000000
    27  H    0.000000   0.000000   0.000000   0.000000   0.000000   0.000000
    28  H   -0.000003   0.000000   0.000001   0.000241   0.000000   0.000000
    29  C   -0.017920  -0.000175   0.001554   0.351212  -0.002653   0.001185
    30  F    0.000447  -0.000137  -0.000220  -0.017370  -0.000084  -0.000007
    31  F    0.000165  -0.000002  -0.000001  -0.018935   0.000004  -0.000003
    32  F   -0.000696   0.000006  -0.000003  -0.018679   0.000666   0.000002
               7          8          9         10         11         12
     1  C   -0.022633  -0.019642  -0.006519   0.002020  -0.027609  -0.031949
     2  C    0.380350   0.374878  -0.024812  -0.019177   0.001616  -0.041729
     3  C   -0.020204  -0.016749   0.370026   0.383534   0.001725   0.312500
     4  C   -0.002242   0.002166  -0.000834   0.002344   0.369780   0.305966
     5  H   -0.002096  -0.000653   0.000091  -0.000064   0.001222   0.001132
     6  H    0.002601  -0.003432   0.000827   0.000133  -0.005221  -0.000055
     7  H    0.593326  -0.025666   0.001916  -0.001758  -0.000006  -0.004154
     8  H   -0.025666   0.600009  -0.000987  -0.000526  -0.000041   0.001687
     9  H    0.001916  -0.000987   0.618559  -0.027092   0.000077  -0.020533
    10  H   -0.001758  -0.000526  -0.027092   0.557531  -0.000025  -0.018471
    11  H   -0.000006  -0.000041   0.000077  -0.000025   0.571739  -0.019086
    12  N   -0.004154   0.001687  -0.020533  -0.018471  -0.019086   6.564092
    13  C   -0.001869   0.000205   0.002854  -0.004595   0.002226   0.320380
    14  O   -0.000006   0.000000  -0.000024   0.000756  -0.000007  -0.023515
    15  O    0.003585   0.000090  -0.000039   0.000067   0.000072  -0.017419
    16  C    0.000376  -0.000003   0.000001  -0.000003   0.000003   0.000588
    17  C   -0.000037   0.000000   0.000000   0.000000   0.000000  -0.000005
    18  H    0.000000   0.000000   0.000000   0.000000   0.000000   0.000000
    19  H    0.000029   0.000000   0.000000   0.000000   0.000000   0.000000
    20  H   -0.000005   0.000000   0.000000   0.000000   0.000000  -0.000001
    21  C    0.000007   0.000000   0.000000   0.000003   0.000000  -0.000033
    22  H    0.000000   0.000000   0.000000   0.000000   0.000000   0.000001
    23  H   -0.000007   0.000000   0.000000  -0.000001   0.000000   0.000085
    24  H    0.000027   0.000000   0.000000  -0.000001   0.000000   0.000002
    25  C    0.000022   0.000000   0.000000   0.000000  -0.000002  -0.000024
    26  H    0.000000   0.000000   0.000000   0.000000  -0.000006  -0.000021
    27  H    0.000000   0.000000   0.000000   0.000000   0.000000   0.000000
    28  H   -0.000003   0.000000   0.000000   0.000000   0.000006  -0.000019
    29  C    0.000326  -0.000010  -0.000003  -0.000029  -0.025211  -0.022076
    30  F   -0.000828   0.000000   0.000009  -0.000007   0.000161   0.001054
    31  F   -0.000002   0.000000   0.000000   0.000000  -0.000655  -0.000299
    32  F    0.000005   0.000000   0.000000   0.000000  -0.000301   0.000091
              13         14         15         16         17         18
     1  C   -0.000511  -0.000006  -0.000182  -0.000007   0.000000   0.000000
     2  C   -0.007129   0.000000  -0.007736   0.000185  -0.000001   0.000000
     3  C   -0.043814  -0.000101   0.000511  -0.000018   0.000000   0.000000
     4  C   -0.030181   0.000465  -0.001362  -0.000043  -0.000005   0.000000
     5  H   -0.000025   0.000000   0.000128  -0.000001   0.000000   0.000000
     6  H    0.000038   0.000000  -0.000007   0.000000   0.000000   0.000000
     7  H   -0.001869  -0.000006   0.003585   0.000376  -0.000037   0.000000
     8  H    0.000205   0.000000   0.000090  -0.000003   0.000000   0.000000
     9  H    0.002854  -0.000024  -0.000039   0.000001   0.000000   0.000000
    10  H   -0.004595   0.000756   0.000067  -0.000003   0.000000   0.000000
    11  H    0.002226  -0.000007   0.000072   0.000003   0.000000   0.000000
    12  N    0.320380  -0.023515  -0.017419   0.000588  -0.000005   0.000000
    13  C    5.046075   0.374416   0.238159  -0.026465   0.000942  -0.000007
    14  O    0.374416   8.250289  -0.018607  -0.002663   0.000006   0.000001
    15  O    0.238159  -0.018607   7.916092   0.219937  -0.020423   0.000733
    16  C   -0.026465  -0.002663   0.219937   4.755442   0.367828  -0.017739
    17  C    0.000942   0.000006  -0.020423   0.367828   4.873051   0.379766
    18  H   -0.000007   0.000001   0.000733  -0.017739   0.379766   0.558790
    19  H    0.000004   0.000001  -0.000418  -0.022932   0.378798  -0.020311
    20  H    0.000090   0.000000   0.000364  -0.024968   0.368878  -0.019577
    21  C   -0.002211  -0.033392  -0.017022   0.363493  -0.026660  -0.001756
    22  H    0.000106   0.000798   0.000697  -0.020379  -0.002223  -0.000131
    23  H   -0.006948   0.026229  -0.000858  -0.020085   0.001290   0.000044
    24  H    0.000127   0.000344  -0.000425  -0.023828  -0.003079   0.000074
    25  C   -0.006791  -0.002557  -0.020283   0.366227  -0.028652  -0.002064
    26  H   -0.001757   0.004184  -0.001571  -0.022226   0.001499   0.000033
    27  H    0.000280   0.000031   0.000690  -0.016932  -0.002251   0.000039
    28  H    0.000984  -0.000001   0.000011  -0.025340  -0.003051   0.000099
    29  C    0.014647  -0.000092   0.033682   0.001127  -0.000310   0.000023
    30  F   -0.064384   0.000217  -0.242977  -0.046574  -0.003553   0.000028
    31  F   -0.002358  -0.000004  -0.000303   0.000114   0.000005   0.000000
    32  F   -0.000080   0.000000  -0.000050  -0.000009   0.000001   0.000000
              19         20         21         22         23         24
     1  C    0.000000  -0.000001   0.000000   0.000000   0.000000   0.000000
     2  C   -0.000005   0.000001  -0.000002   0.000000   0.000000  -0.000005
     3  C    0.000000   0.000000   0.000000   0.000000  -0.000003   0.000000
     4  C    0.000000   0.000002   0.000004   0.000000  -0.000005   0.000000
     5  H    0.000000   0.000002   0.000000   0.000000   0.000000   0.000000
     6  H    0.000000   0.000000   0.000000   0.000000   0.000000   0.000000
     7  H    0.000029  -0.000005   0.000007   0.000000  -0.000007   0.000027
     8  H    0.000000   0.000000   0.000000   0.000000   0.000000   0.000000
     9  H    0.000000   0.000000   0.000000   0.000000   0.000000   0.000000
    10  H    0.000000   0.000000   0.000003   0.000000  -0.000001  -0.000001
    11  H    0.000000   0.000000   0.000000   0.000000   0.000000   0.000000
    12  N    0.000000  -0.000001  -0.000033   0.000001   0.000085   0.000002
    13  C    0.000004   0.000090  -0.002211   0.000106  -0.006948   0.000127
    14  O    0.000001   0.000000  -0.033392   0.000798   0.026229   0.000344
    15  O   -0.000418   0.000364  -0.017022   0.000697  -0.000858  -0.000425
    16  C   -0.022932  -0.024968   0.363493  -0.020379  -0.020085  -0.023828
    17  C    0.378798   0.368878  -0.026660  -0.002223   0.001290  -0.003079
    18  H   -0.020311  -0.019577  -0.001756  -0.000131   0.000044   0.000074
    19  H    0.580475  -0.022914  -0.002462   0.000079   0.000006   0.001045
    20  H   -0.022914   0.604743   0.001716   0.000032  -0.000064   0.000010
    21  C   -0.002462   0.001716   4.952713   0.366075   0.362397   0.374318
    22  H    0.000079   0.000032   0.366075   0.612981  -0.017280  -0.020048
    23  H    0.000006  -0.000064   0.362397  -0.017280   0.487545  -0.019779
    24  H    0.001045   0.000010   0.374318  -0.020048  -0.019779   0.606688
    25  C    0.001572  -0.003134  -0.025311  -0.001922  -0.002573   0.001536
    26  H   -0.000066  -0.000015  -0.002826   0.000163   0.000359   0.000035
    27  H    0.000062   0.000139  -0.001977  -0.000266   0.000076   0.000063
    28  H    0.000009   0.001323   0.001559   0.000026   0.000024  -0.000072
    29  C   -0.000010   0.000820  -0.000015  -0.000003   0.000007  -0.000002
[...]
 04519,-0.00004022,-0.00004705,0.00000888,0.00000219,-0.00000954,0.0000
 0469,-0.00000055,-0.00000832,0.00000383,0.00000505,-0.00000121,0.00000
 056,0.00000399,-0.00000633,-0.00001437,-0.00000350,-0.00000622,-0.0000
 0552,-0.00000933,-0.00000392,0.00001639,0.00003326,0.00001098,0.000231
 13,0.00032940,-0.00021481,-0.00116351,-0.00107495,-0.00031907,-0.00022
 479,0.00147659,-0.00016791,0.00116918,0.00023013,0.00033770,-0.0020834
 7,0.00201333,-0.00278762,-0.00014110,-0.00028781,-0.00008470,0.0001446
 0,-0.00040913,-0.00032552,-0.00012378,0.00014121,0.00003170,-0.0000018
 4,-0.00014445,0.00012328,-0.00001451,-0.00004651,-0.00003963,-0.000077
 55,0.00031284,0.00036092,-0.00006914,0.00015644,-0.00012754,-0.0000115
 0,-0.00020183,-0.00000479,-0.04615521,0.00663934,-0.00682856,0.0009249
 6,0.01841094,-0.01662219,0.04563813,0.00004001,-0.00004280,-0.00003131
 ,0.00000746,0.00001754,0.00005551,-0.00024697,0.00002755,-0.00013426,0
 .00017062,0.00020129,-0.00000419,-0.00001272,-0.00001781,0.00002303,-0
 .00000123,0.00000863,0.00000311,-0.00000222,-0.00001477,0.00000101,-0.
 00000206,-0.00002117,0.00002731,0.00002797,-0.00000120,0.00006714,0.00
 002692,-0.00000652,0.00002214,0.00004442,0.00000338,-0.00001145,0.0002
 1275,-0.00050289,0.00086325,-0.00302030,-0.00005987,-0.00323101,0.0009
 2658,0.00079363,0.00032977,0.00222249,-0.00803851,0.00043189,0.0002424
 2,-0.01709699,0.02328013,0.00006462,0.00096490,0.00116084,-0.00039503,
 -0.00004307,-0.00093861,0.00018022,0.00042606,-0.00018138,0.00000442,-
 0.00006807,-0.00009233,-0.00036911,0.00091182,0.00060823,0.00049961,0.
 00013003,-0.00073868,0.00000980,-0.00005518,0.00004112,-0.00018952,0.0
 0030143,-0.00020680,0.00665326,-0.17177880,0.12764572,0.00099798,0.005
 20262,-0.00518649,-0.00731156,0.18759629,0.00002888,0.00001821,0.00000
 109,0.00000243,-0.00000418,0.00002512,0.00003263,-0.00006333,0.0000761
 2,-0.00005358,-0.00007576,-0.00005461,0.00000538,0.00001445,-0.0000094
 7,-0.00000944,-0.00000650,0.00001190,0.00000119,0.00001186,-0.00000051
 ,0.00000303,-0.00000366,-0.00000806,0.00000271,0.00000082,0.00002226,-
 0.00001099,0.00000204,-0.00000107,0.00001921,-0.00000987,-0.00000906,0
 .00029241,0.00036161,0.00000121,-0.00148083,-0.00159223,-0.00083995,0.
 00008240,0.00149640,0.00008760,0.00026504,-0.00438623,0.00204864,0.000
 43007,-0.00790722,0.00821042,-0.00019193,-0.00003611,-0.00005207,-0.00
 014689,-0.00062896,0.00014595,0.00015177,0.00009337,0.00027469,-0.0001
 0424,0.00004830,-0.00002565,0.00012751,0.00032105,-0.00009782,0.000245
 44,-0.00041280,0.00019635,0.00008252,0.00005084,-0.00006267,-0.0002301
 4,0.00006683,0.00022035,-0.00657631,0.13077352,-0.18250961,0.00140797,
 0.01309421,-0.01324769,0.00723340,-0.14188666,0.19742033,-0.00001771,0
 .00003226,0.00001817,0.00000161,-0.00001009,-0.00000686,0.00000886,0.0
 0006635,0.00007016,-0.00006178,0.00003923,-0.00004102,0.00000756,-0.00
 000676,-0.00000760,0.00001902,-0.00000017,-0.00002472,0.00000511,-0.00
 000678,0.00000195,-0.00000204,0.00000930,-0.00000703,-0.00002572,-0.00
 001412,-0.00002539,0.00000714,-0.00002209,-0.00000691,0.00001161,0.000
 03374,0.00003108,0.00012351,0.00019995,-0.00015323,-0.00088515,-0.0000
 6940,0.00008924,0.00039313,0.00053133,-0.00048413,0.00089157,-0.000070
 39,-0.00099884,-0.00474380,-0.00036521,0.00215127,0.00045011,-0.000469
 55,-0.00072076,0.00003328,0.00003644,-0.00011748,0.00015678,0.00012533
 ,-0.00007764,0.00065875,-0.00016105,0.00001001,0.00109148,0.00139199,-
 0.00005935,0.00004533,-0.00017681,-0.00006425,0.00033328,-0.00021715,-
 0.00007755,-0.00009676,0.00007516,0.00039440,-0.23849282,0.00739340,0.
 11499623,-0.01916952,0.00066025,0.01406929,0.00192531,-0.00076181,-0.0
 0162369,0.25730442,-0.00000293,0.00000667,0.00001265,0.00000134,-0.000
 00725,-0.00000393,0.00005821,-0.00003587,0.00004824,0.00001986,-0.0000
 7685,0.00001938,0.00000145,0.00001054,-0.00000659,-0.00000607,-0.00000
 396,0.00001544,-0.00000251,0.00000711,-0.00000141,-0.00000072,0.000002
 10,-0.00000976,-0.00000205,0.00000457,-0.00001016,-0.00001383,0.000004
 64,-0.00000954,-0.00001893,-0.00003834,0.00000079,0.00001421,0.0001406
 4,-0.00013061,0.00087491,-0.00026993,0.00081310,-0.00028989,-0.0000726
 9,-0.00004982,-0.00091622,0.00324042,-0.00030949,0.02716453,-0.0026006
 5,-0.01705495,0.00119922,0.00104132,0.00080215,-0.00013376,0.00000567,
 0.00003117,-0.00003792,0.00007939,0.00033611,-0.00069956,-0.00005697,-
 0.00015684,-0.00051010,-0.00560567,-0.00176951,-0.00013716,0.00016919,
 -0.00021739,-0.00014522,-0.00004564,0.00011830,0.00160387,-0.00009347,
 -0.00111522,0.00529022,-0.04659715,-0.00350530,-0.00481490,-0.00081369
 ,0.00404405,-0.02023502,0.00119571,0.01063418,-0.00824639,0.05039472,-
 0.00000760,-0.00000265,0.00000390,0.00000513,0.00000037,-0.00000290,-0
 .00001509,0.00001464,-0.00001093,0.00007271,0.00004793,0.00002609,0.00
 000002,-0.00000872,0.00000120,0.00000616,0.00000572,-0.00000112,-0.000
 00180,-0.00000472,0.00000023,-0.00000265,0.00000090,0.00000236,-0.0000
 0905,-0.00000022,-0.00000785,0.00000288,-0.00000598,-0.00000198,-0.000
 00009,0.00000164,0.00000716,0.00001559,-0.00007668,0.00008055,-0.00012
 904,0.00014348,0.00002192,0.00012125,0.00006090,-0.00015720,-0.0010781
 8,0.00073668,0.00103306,0.01219124,0.00140088,-0.00939785,0.00100374,0
 .00077105,0.00015561,0.00008656,-0.00009484,-0.00004249,-0.00032598,0.
 00012025,0.00026376,-0.00075597,-0.00056203,-0.00003588,-0.00079086,-0
 .00306206,-0.00049677,-0.00031578,0.00005357,0.00031292,0.00012884,0.0
 0001477,0.00002002,0.00098924,-0.00026740,-0.00011061,0.11343687,-0.00
 587981,-0.11617063,-0.01669507,0.00099368,0.01230662,0.01943036,-0.001
 88500,-0.01180722,-0.12734812,0.00748669,0.12401380,-0.00372008,0.0054
 0253,0.00558728,0.00163091,-0.00292601,-0.00050163,-0.00072720,-0.0038
 5194,-0.00100525,-0.06476982,0.02340913,0.00938451,0.00044008,-0.00129
 941,0.00242222,0.00010749,-0.00088767,0.00151068,-0.00101721,0.0011760
 0,-0.00205759,-0.00116548,0.00106645,0.00013266,-0.00075055,0.00027761
 ,-0.00087092,-0.00076910,-0.00092731,-0.00059315,-0.00779049,0.0233954
 5,0.01458605,-0.00899854,-0.02591800,-0.01375037,0.00047220,-0.0019084
 0,-0.00500419,-0.00223783,-0.00111023,0.00129062,-0.00051395,0.0005624
 4,0.00061175,0.00043883,-0.00038166,0.00035749,0.00004412,-0.00013414,
 -0.00015265,-0.00008534,-0.00001191,0.00001607,0.00030160,-0.00001169,
 -0.00001167,-0.00018335,0.00025049,0.00012916,-0.00007354,-0.00031682,
 -0.00027579,-0.00004255,0.00018423,0.00001376,-0.00005910,-0.00009289,
 -0.00002201,0.00003536,0.00006653,0.00032655,-0.00009464,0.00003823,-0
 .00010777,-0.00000830,-0.00005753,-0.00001540,0.00001859,0.00004917,-0
 .00000807,-0.00005522,0.00004643,0.00008470,0.47752985,0.00148344,0.01
 584591,-0.00371657,-0.00206487,0.00136785,0.00167832,-0.00059946,0.001
 11923,-0.00296538,0.02033097,-0.13031640,-0.04119863,-0.00189238,-0.00
 121539,0.00207602,-0.00080152,-0.00145608,0.00536415,0.00159079,-0.000
 82733,0.00150112,0.00160623,-0.00097031,0.00036246,0.00049438,-0.00021
 695,0.00068840,0.00086661,0.00036473,0.00066697,0.00779768,-0.01534056
 ,-0.01083462,-0.01391871,-0.01936361,-0.00545508,-0.00305112,-0.007026
 24,-0.00169192,0.00305268,0.00350843,0.00055223,0.00075793,0.00391165,
 -0.00159175,0.00041448,-0.00258647,0.00309791,0.00004882,0.00001580,-0
 .00039784,-0.00002082,0.00028656,-0.00017942,0.00008420,-0.00005323,0.
 00043510,0.00008911,-0.00009869,0.00013046,-0.00001421,0.00029730,-0.0
 0055626,0.00011575,0.00020912,-0.00024024,-0.00007675,-0.00004736,0.00
 017517,-0.00016704,-0.00005444,0.00026048,0.00004143,0.00043881,-0.000
 51351,0.00002106,-0.00017898,0.00008563,-0.00004217,0.00031893,-0.0001
 0159,0.00000486,-0.00012681,0.00005009,-0.01479893,0.52932807,0.010337
 43,-0.01993488,-0.02541676,-0.00059474,-0.00122518,0.00048721,0.000243
 79,-0.00116507,-0.00103153,0.00683978,-0.04914615,-0.10553886,0.001129
 33,-0.00018207,-0.00032557,-0.00023008,0.00206317,-0.00246320,-0.00122
 868,0.00051169,-0.00143875,0.00031864,0.00092990,0.00060113,-0.0001582
 6,0.00036446,-0.00007852,0.00022666,0.00007761,0.00001927,-0.00348515,
 0.01249288,0.00879318,-0.00449250,0.00465625,-0.00514872,0.00356735,-0
 .00665433,0.01620825,0.00176494,0.00432038,-0.00342488,-0.00279379,-0.
 00072063,-0.00876522,0.00018484,-0.00030061,0.00154325,-0.00022507,0.0
 0116228,0.00063705,-0.00009112,-0.00043340,-0.00018794,-0.00009307,-0.
 00011009,-0.00088246,0.00013358,-0.00007278,-0.00003733,-0.00012175,0.
 00105003,0.00023308,0.00014110,-0.00027269,-0.00019596,-0.00016034,-0.
 00019350,0.00012809,0.00033959,-0.00017701,-0.00055741,-0.00015901,0.0
 0019386,-0.00027875,-0.00007895,-0.00030016,-0.00001986,-0.00001191,0.
 00009627,-0.00008870,0.00018191,-0.00012876,-0.00001760,-0.01587591,0.
 03885393,0.52407023,0.00027542,-0.00016462,-0.00159375,-0.00092649,0.0
 0129600,-0.00032892,-0.00033772,0.00123158,-0.00037777,-0.01610993,0.0
 1321939,-0.01062998,-0.00013318,0.00020101,-0.00004338,0.00028944,-0.0
 0019009,0.00017853,0.00077865,-0.00090211,0.00099299,0.00065941,-0.000
 67133,-0.00005864,0.00023936,-0.00017862,0.00030377,0.00049386,0.00043
 323,0.00039577,0.00052484,0.00263345,0.00294457,0.00383034,-0.00056494
 ,0.00029797,-0.00131097,-0.00024737,-0.00059861,0.00119249,0.00074996,
 0.00025097,0.00086111,0.00037962,0.00049749,-0.00009354,-0.00031032,0.
 00032839,-0.00001765,-0.00005342,-0.00008094,0.00003367,0.00009208,-0.
 00002340,-0.00004895,0.00000458,0.00014645,0.00007738,-0.00008486,0.00
 000156,0.00003968,0.00003471,-0.00003601,0.00002280,0.00000801,-0.0000
 2364,0.00002176,0.00005101,0.00003352,-0.00008742,-0.00001812,-0.00000
 597,0.00003155,0.00005509,-0.00002508,0.00001280,0.00001204,0.00002365
 ,-0.00000691,0.00003290,-0.00001715,0.00001704,-0.00003841,-0.00001991
 ,-0.14511072,0.08171924,-0.01894779,0.21890880,-0.00072799,-0.00030075
 ,0.00153270,0.00039575,-0.00069635,-0.00142667,0.00045581,-0.00051055,
 0.00139299,0.03642354,-0.02065264,0.01736618,0.00051442,0.00033999,-0.
 00066981,-0.00022886,0.00057549,-0.00041570,-0.00055046,-0.00019121,-0
 .00191498,-0.00038057,0.00024449,-0.00010854,-0.00015023,0.00010667,-0
 .00032863,-0.00039946,-0.00017201,-0.00028039,0.00048239,-0.00588555,-
 0.00610445,-0.00078503,0.00159041,0.00044763,0.00168541,0.00209525,-0.
 00025690,-0.00145890,-0.00136323,-0.00022094,-0.00064003,-0.00101068,0
 .00038994,-0.00005495,0.00084797,-0.00091647,0.00001496,0.00000806,0.0
 0014361,-0.00001750,-0.00012013,0.00006314,0.00000363,0.00001317,-0.00
 017996,-0.00007260,0.00007605,-0.00003979,-0.00002586,-0.00010446,0.00
 015815,-0.00003700,-0.00005744,0.00007919,0.00001214,-0.00000306,-0.00
 006738,0.00008418,0.00002400,-0.00006356,-0.00001726,-0.00013573,0.000
 11972,-0.00001272,0.00004845,-0.00003620,0.00001147,-0.00009287,0.0000
 4730,-0.00001818,0.00006159,-0.00000319,0.07459390,-0.15705496,0.01537
 838,-0.12086061,0.17474614,-0.00061587,0.00108080,0.00092466,-0.000942
 37,0.00105045,-0.00237203,-0.00005028,0.00063416,-0.00041816,0.0083859
 8,-0.00808846,0.00903899,-0.00039814,-0.00020926,-0.00005277,0.0000016
 7,-0.00043381,0.00043415,0.00137607,-0.00239599,-0.00067589,0.00047020
 ,-0.00107170,-0.00020305,0.00007483,-0.00016558,0.00022596,0.00006952,
 0.00013730,0.00013001,0.00067321,-0.00283325,-0.00130052,-0.00006859,-
 0.00127449,0.00117016,-0.00055689,0.00111062,-0.00247123,0.00004387,-0
 .00044910,0.00057525,0.00056766,0.00012173,0.00167401,-0.00005504,0.00
 002188,-0.00027448,0.00003955,-0.00023012,-0.00014117,0.00002099,0.000
 09502,0.00003369,0.00001206,0.00002472,0.00018968,-0.00001687,0.000004
 56,0.00000961,0.00003108,-0.00019753,-0.00004592,-0.00002725,0.0000500
 4,0.00003107,0.00003118,0.00004131,-0.00001502,-0.00007541,0.00003404,
 0.00009972,0.00003671,-0.00003357,0.00006119,0.00001834,0.00005519,0.0
 0000642,-0.00000040,-0.00001635,0.00001303,-0.00003511,0.00001911,-0.0
 0000073,-0.02387605,0.02346578,-0.08029367,0.07001345,-0.06183793,0.11
 350268,0.00049224,0.00207712,-0.00021482,-0.00039868,0.00027666,0.0002
 8781,0.00027427,-0.00009311,0.00040761,0.00145765,-0.00562294,0.013255
 54,0.00000273,0.00012410,-0.00047145,0.00003038,-0.00000697,0.00062132
 ,0.00013495,-0.00010539,0.00013039,0.00028364,-0.00005721,0.00005110,0
 .00002012,0.00002460,-0.00006305,0.00009899,0.00012872,0.00007666,0.00
 075471,-0.00154475,-0.00067042,0.00223703,0.00132619,-0.00177385,0.000
 07016,0.00008961,0.00155403,0.00031853,0.00041288,-0.00027336,0.000300
 39,-0.00023225,-0.00084848,-0.00017947,0.00015042,0.00003352,-0.000005
 66,0.00008724,0.00004423,0.00002605,-0.00000603,-0.00000919,-0.0001392
 7,0.00001830,-0.00003069,0.00007747,-0.00008963,-0.00004055,-0.0000028
 6,0.00020138,0.00017942,0.00003375,-0.00010598,-0.00001690,0.00001670,
 0.00001762,0.00000412,0.00003596,-0.00003716,-0.00019257,0.00003368,0.
 00000942,0.00000138,-0.00000678,0.00000331,0.00000453,-0.00000560,-0.0
 0000517,0.00000009,0.00003557,-0.00002946,-0.00002842,-0.08448790,-0.0
 0310474,0.04773423,0.01091679,0.01353598,-0.03135036,0.09872542,0.0006
 2213,-0.00447346,-0.00058316,0.00048001,-0.00032045,-0.00029520,0.0004
 7751,-0.00026383,0.00051330,0.00444758,0.00976523,-0.02114963,0.000251
 78,0.00029030,-0.00010122,0.00004660,0.00047098,-0.00133036,-0.0003434
 3,0.00021765,-0.00030801,-0.00032696,0.00024095,-0.00005925,-0.0000881
 9,0.00006809,-0.00015098,-0.00015368,-0.00005170,-0.00006924,-0.000704
 16,0.00127255,0.00096058,0.00107275,0.00153825,-0.00056787,0.00192925,
 0.00036429,0.00232185,-0.00103092,-0.00041984,-0.00052561,-0.00075608,
 -0.00377264,-0.00131470,-0.00002665,0.00077124,-0.00126012,-0.00003711
 ,0.00006591,0.00020802,0.00001384,-0.00011583,0.00003820,0.00001594,-0
 .00009705,-0.00013483,-0.00000475,0.00001761,-0.00004179,-0.00001707,-
 0.00001891,0.00019599,-0.00003021,-0.00009111,0.00005254,0.00000863,0.
 00000336,-0.00003838,0.00005104,-0.00003279,-0.00010742,-0.00003092,-0
 .00019469,0.00025110,-0.00001313,0.00004090,-0.00002516,0.00001123,-0.
 00013066,0.00001898,0.00001059,0.00003999,-0.00001210,-0.00643517,-0.0
 7841872,0.02276922,0.00949605,-0.01525884,0.04927826,0.02260703,0.0987
 2721,0.00238041,-0.00847801,0.00018693,0.00051241,0.00022289,-0.000397
 42,-0.00027986,0.00058577,-0.00035960,0.01456187,0.01600573,-0.0394936
 3,-0.00040092,0.00006098,0.00101286,-0.00005908,0.00052020,-0.00305995
 ,0.00010160,-0.00016791,0.00038974,-0.00040689,-0.00027646,-0.00021413
 ,0.00005534,-0.00014730,0.00012867,-0.00011708,-0.00007158,0.00005975,
 0.00019675,-0.00033777,-0.00001066,-0.00121804,-0.00223180,0.00485495,
 -0.00184331,0.00411159,-0.00777373,-0.00039935,-0.00193045,0.00155838,
 0.00155030,0.00028873,0.00499734,-0.00002418,-0.00004413,-0.00089823,0
 .00011466,-0.00071782,-0.00046647,0.00004643,0.00028178,0.00010699,0.0
 0007613,0.00013587,0.00049145,-0.00009269,0.00008032,0.00005757,0.0000
 9615,-0.00064431,-0.00022412,-0.00008480,0.00019646,0.00010222,0.00007
 705,0.00012204,-0.00005107,-0.00023676,0.00010514,0.00039102,0.0000869
 2,-0.00012029,0.00020464,0.00004753,0.00015497,0.00001565,0.00000949,-
 0.00005822,0.00002889,-0.00010912,0.00007124,0.00002159,0.04563237,0.0
 1068337,-0.23730073,-0.02058812,0.03986512,-0.04537973,-0.07268047,-0.
 08141419,0.32736215,-0.00021780,-0.00138157,0.00127191,-0.00033930,0.0
 0095259,-0.00034621,0.00086463,-0.00049750,0.00100955,-0.01188503,-0.0
 0670362,0.00035565,0.00015993,0.00100776,-0.00112998,0.00026312,0.0002
 3970,-0.00044075,0.00023120,-0.00028946,0.00048552,0.00016228,-0.00021
 717,-0.00014951,-0.00012404,-0.00011459,-0.00032207,0.00014259,0.00024
 130,0.00005042,0.00136251,-0.00155758,0.00022756,0.00085445,-0.0047112
 8,-0.00066540,0.00035358,0.00301729,-0.00246463,-0.00105766,-0.0012873
 0,0.00034853,0.00093587,-0.00116066,0.00098720,-0.00029792,0.00086049,
 -0.00089718,-0.00005112,0.00000841,0.00016649,0.00006020,-0.00004172,0
 .00004230,-0.00015040,0.00002588,-0.00006338,0.00007625,-0.00010267,-0
 .00008771,0.00001473,0.00001495,0.00026448,-0.00000496,-0.00011697,0.0
 0007667,0.00008138,0.00005892,-0.00006831,0.00002325,-0.00000640,-0.00
 017715,0.00000870,-0.00011413,0.00015977,0.00000068,0.00010542,-0.0000
 1613,0.00001088,-0.00009595,0.00003918,0.00003003,0.00000681,-0.000051
 67,-0.15835813,-0.07996695,-0.02439503,-0.07504370,-0.00177538,-0.0237
 9775,-0.03115097,-0.03154354,0.03299526,0.27304474,-0.00106576,-0.0011
 2008,0.00101797,0.00016196,-0.00006777,-0.00018809,0.00066537,-0.00185
 176,0.00156715,-0.03534231,-0.01449473,-0.00291641,0.00029771,0.000357
 13,-0.00132234,0.00030892,0.00033596,-0.00043991,-0.00008507,0.0000813
 1,-0.00001367,-0.00013027,0.00006832,-0.00017354,-0.00044020,-0.000049
 02,-0.00072602,-0.00017970,0.00000064,-0.00022824,-0.00115525,0.001411
 88,0.00107243,-0.00075660,-0.00819539,-0.00419993,0.00058371,0.0044506
 7,-0.00467007,-0.00202253,-0.00231702,0.00075240,0.00103299,-0.0014093
 8,0.00187502,-0.00021554,0.00112557,-0.00124700,-0.00002774,-0.0000833
 3,0.00014157,0.00003956,-0.00006683,0.00008133,-0.00006923,0.00003070,
 -0.00008326,0.00000861,-0.00001064,-0.00006326,-0.00000250,-0.00014764
 ,0.00025624,-0.00002894,-0.00009312,0.00012473,0.00008691,0.00006183,-
 0.00010490,0.00003514,0.00002557,-0.00011478,-0.00000610,-0.00016957,0
 .00020331,-0.00000215,0.00013520,-0.00003331,0.00002212,-0.00012865,0.
 00006113,0.00000576,0.00004066,-0.00003785,-0.06944887,-0.14165984,-0.
 02390301,0.01263487,0.02283273,0.00201217,-0.03004979,-0.01023400,0.02
 314804,0.12514493,0.15114060,-0.00096076,0.00117370,-0.00018020,0.0002
 3582,-0.00051331,-0.00001713,0.00008972,-0.00046031,0.00040376,-0.0174
 2130,-0.01084710,0.00460501,-0.00061979,-0.00149465,-0.00007977,-0.000
 11451,-0.00037614,0.00006717,0.00008790,0.00002827,0.00009847,-0.00015
 094,-0.00007648,-0.00010795,-0.00011531,-0.00009203,-0.00022687,-0.000
 07710,-0.00006973,-0.00001737,0.00042688,-0.00042747,-0.00008117,-0.00
 074317,-0.00603236,-0.00005470,-0.00048862,0.00255698,-0.00456598,-0.0
 0093998,-0.00141616,0.00089539,0.00091763,-0.00030674,0.00200406,-0.00
 008068,0.00037885,-0.00062691,0.00001811,-0.00021849,-0.00004584,0.000
 03752,0.00005388,0.00004908,-0.00002273,0.00003117,0.00012000,-0.00000
 424,-0.00000690,-0.00001619,0.00002122,-0.00021174,0.00003642,-0.00002
 917,0.00001721,0.00006806,0.00005832,0.00005254,-0.00005454,-0.0000456
 1,0.00003728,0.00005881,0.00001670,-0.00008324,0.00011321,0.00001417,0
 .00009411,-0.00000512,0.00001130,-0.00005373,0.00003022,-0.00002491,0.
 00002670,-0.00000903,-0.01795743,-0.02068481,-0.07922834,-0.02301002,-
 0.00211258,0.00552410,0.04427860,0.03288119,-0.00634130,0.01659237,0.0
 0815211,0.07758465\\-0.00000517,0.00000526,0.00001863,-0.00000802,-0.0
 0001043,-0.00003257,-0.00000654,0.00004370,0.00000361,0.00004122,0.000
 02293,-0.00003244,-0.00000371,0.00000108,0.00000160,-0.00000302,-0.000
 00496,0.00000519,-0.00000667,0.00000770,0.00000358,-0.00000414,0.00000
 368,0.00000179,0.00000858,-0.00001102,-0.00000663,0.00000426,-0.000005
 40,0.00000032,0.00000167,-0.00000486,0.00000137,-0.00004510,-0.0000152
 5,0.00001341,-0.00000115,-0.00000773,0.00000171,0.00000824,0.00001080,
 0.00000859,0.00001721,0.00002071,-0.00002361,-0.00000798,-0.00002848,0
 .00003660,-0.00000133,0.00000048,-0.00001338,0.00000420,-0.00000475,0.
 00000211,-0.00000102,-0.00000056,0.00000106,-0.00000065,-0.00000035,0.
 00000376,0.00000487,-0.00001014,-0.00000701,0.00000356,-0.00000145,0.0
 0000100,-0.00000115,-0.00000058,-0.00000203,-0.00000136,0.00000187,0.0
 0000339,0.00001212,-0.00000007,-0.00000904,0.00000057,0.00000140,-0.00
 000063,0.00000278,-0.00000129,0.00000386,0.00000164,-0.00000072,-0.000
 00204,0.00007165,-0.00004847,0.00005031,-0.00004152,0.00003450,-0.0000
 2538,0.00000228,0.00000678,-0.00001275,-0.00004632,-0.00000435,0.00000
 562\\\@


 THE LENGTH OF A MEETING IS PROPORTIONAL TO THE
 SQUARE OF THE PARTICIPANTS.
 Job cpu time:       0 days  4 hours  0 minutes 53.9 seconds.
 File lengths (MBytes):  RWF=    620 Int=      0 D2E=      0 Chk=     22 Scr=      1
 Normal termination of Gaussian 09 at Tue Aug 27 14:37:14 2024.
