 Entering Gaussian System, Link 0=g09
 Initial command:
 /cm/shared/apps/gaussian/g09revD.01/g09/l1.exe "//home/sweav003/CHB/OrthoParaExtra/G09-regiodevergent1b_Ishiyana.com.o9918458.tmp/Gau-88228.inp" -scrdir="//home/sweav003/CHB/OrthoParaExtra/G09-regiodevergent1b_Ishiyana.com.o9918458.tmp/"
 Entering Link 1 = /cm/shared/apps/gaussian/g09revD.01/g09/l1.exe PID=     88229.
  
 Copyright (c) 1988,1990,1992,1993,1995,1998,2003,2009,2013,
            Gaussian, Inc.  All Rights Reserved.
  
 This is part of the Gaussian(R) 09 program.  It is based on
 the Gaussian(R) 03 system (copyright 2003, Gaussian, Inc.),
 the Gaussian(R) 98 system (copyright 1998, Gaussian, Inc.),
 the Gaussian(R) 94 system (copyright 1995, Gaussian, Inc.),
 the Gaussian 92(TM) system (copyright 1992, Gaussian, Inc.),
 the Gaussian 90(TM) system (copyright 1990, Gaussian, Inc.),
 the Gaussian 88(TM) system (copyright 1988, Gaussian, Inc.),
 the Gaussian 86(TM) system (copyright 1986, Carnegie Mellon
 University), and the Gaussian 82(TM) system (copyright 1983,
 Carnegie Mellon University). Gaussian is a federally registered
 trademark of Gaussian, Inc.
  
 This software contains proprietary and confidential information,
 including trade secrets, belonging to Gaussian, Inc.
  
 This software is provided under written license and may be
 used, copied, transmitted, or stored only in accord with that
 written license.
  
 The following legend is applicable only to US Government
 contracts under FAR:
  
                    RESTRICTED RIGHTS LEGEND
  
 Use, reproduction and disclosure by the US Government is
 subject to restrictions as set forth in subparagraphs (a)
 and (c) of the Commercial Computer Software - Restricted
 Rights clause in FAR 52.227-19.
  
 Gaussian, Inc.
 340 Quinnipiac St., Bldg. 40, Wallingford CT 06492
  
  
 ---------------------------------------------------------------
 Warning -- This program may not be used in any manner that
 competes with the business of Gaussian, Inc. or will provide
 assistance to any competitor of Gaussian, Inc.  The licensee
 of this program is prohibited from giving any competitor of
 Gaussian, Inc. access to this program.  By using this program,
 the user acknowledges that Gaussian, Inc. is engaged in the
 business of creating and licensing software in the field of
 computational chemistry and represents and warrants to the
 licensee that it is not a competitor of Gaussian, Inc. and that
 it will not use this program in any manner prohibited above.
 ---------------------------------------------------------------
  

 Cite this work as:
 Gaussian 09, Revision D.01,
 M. J. Frisch, G. W. Trucks, H. B. Schlegel, G. E. Scuseria, 
 M. A. Robb, J. R. Cheeseman, G. Scalmani, V. Barone, B. Mennucci, 
 G. A. Petersson, H. Nakatsuji, M. Caricato, X. Li, H. P. Hratchian, 
 A. F. Izmaylov, J. Bloino, G. Zheng, J. L. Sonnenberg, M. Hada, 
 M. Ehara, K. Toyota, R. Fukuda, J. Hasegawa, M. Ishida, T. Nakajima, 
 Y. Honda, O. Kitao, H. Nakai, T. Vreven, J. A. Montgomery, Jr., 
 J. E. Peralta, F. Ogliaro, M. Bearpark, J. J. Heyd, E. Brothers, 
 K. N. Kudin, V. N. Staroverov, T. Keith, R. Kobayashi, J. Normand, 
 K. Raghavachari, A. Rendell, J. C. Burant, S. S. Iyengar, J. Tomasi, 
 M. Cossi, N. Rega, J. M. Millam, M. Klene, J. E. Knox, J. B. Cross, 
 V. Bakken, C. Adamo, J. Jaramillo, R. Gomperts, R. E. Stratmann, 
 O. Yazyev, A. J. Austin, R. Cammi, C. Pomelli, J. W. Ochterski, 
 R. L. Martin, K. Morokuma, V. G. Zakrzewski, G. A. Voth, 
 P. Salvador, J. J. Dannenberg, S. Dapprich, A. D. Daniels, 
 O. Farkas, J. B. Foresman, J. V. Ortiz, J. Cioslowski, 
 and D. J. Fox, Gaussian, Inc., Wallingford CT, 2013.
 
 ******************************************
 Gaussian 09:  ES64L-G09RevD.01 24-Apr-2013
                 2-Feb-2023 
 ******************************************
 %nprocshared=20
 Will use up to   20 processors via shared memory.
 %mem=4GB
 %chk=regiodevergent1b_Ishiyana.chk
 ----------------------------------------------------------------------
 # opt freq=noraman b3lyp/6-311+g(d,p) pop=(npa,hirshfeld,chelpg,mbs) g
 eom=connectivity
 ----------------------------------------------------------------------
 1/14=-1,18=20,19=15,26=3,38=1,57=2/1,3;
 2/9=110,12=2,17=6,18=5,40=1/2;
 3/5=4,6=6,7=111,11=2,16=1,25=1,30=1,71=1,74=-5/1,2,3;
 4//1;
 5/5=2,38=5/2;
 6/7=2,8=2,9=2,10=2,15=8,20=3,27=100,28=1,40=-1,79=1/1,2,7;
 7//1,2,3,16;
 1/14=-1,18=20,19=15,26=3/3(2);
 2/9=110/2;
 99//99;
 2/9=110/2;
 3/5=4,6=6,7=111,11=2,16=1,25=1,30=1,71=1,74=-5/1,2,3;
 4/5=5,16=3,69=1/1;
 5/5=2,38=5/2;
 7//1,2,3,16;
 1/14=-1,18=20,19=15,26=3/3(-5);
 2/9=110/2;
 6/7=2,8=2,9=2,10=2,15=8,19=2,20=3,27=100,28=1,40=-1,79=1/1,2,7;
 99/9=1/99;
 -------------------
 Title Card Required
 -------------------
 Symbolic Z-matrix:
 Charge =  0 Multiplicity = 1
 C                    -1.46218   0.36046   0.01914 
 C                    -1.05291  -0.95696   0.03184 
 C                     0.39497  -0.94159   0.01832 
 C                     0.77463   0.38468  -0.00185 
 O                    -0.35274   1.20678  -0.00188 
 H                    -1.67577  -1.84617   0.0488 
 H                     1.03709  -1.81709   0.02335 
 C                    -2.81925   1.08844   0.02252 
 H                    -2.88702   1.71259   0.88897 
 H                    -2.90329   1.69036  -0.85812 
 H                    -3.61034   0.36815   0.03906 
 C                     2.11542   1.14193  -0.02373 
 O                     2.17456   2.36771  -0.03968 
 C                     3.37706   0.25882  -0.02422 
 H                     3.38808  -0.34789   0.85707 
 H                     3.37201  -0.36988  -0.89002 
 H                     4.24767   0.88066  -0.04006 
 

 GradGradGradGradGradGradGradGradGradGradGradGradGradGradGradGradGradGrad
 Berny optimization.
 Initialization pass.
                           ----------------------------
                           !    Initial Parameters    !
                           ! (Angstroms and Degrees)  !
 --------------------------                            --------------------------
 ! Name  Definition              Value          Derivative Info.                !
 --------------------------------------------------------------------------------
 ! R1    R(1,2)                  1.3796         estimate D2E/DX2                !
 ! R2    R(1,5)                  1.3955         estimate D2E/DX2                !
 ! R3    R(1,8)                  1.54           estimate D2E/DX2                !
 ! R4    R(2,3)                  1.448          estimate D2E/DX2                !
 ! R5    R(2,6)                  1.0858         estimate D2E/DX2                !
 ! R6    R(3,4)                  1.3797         estimate D2E/DX2                !
 ! R7    R(3,7)                  1.0857         estimate D2E/DX2                !
 ! R8    R(4,5)                  1.3953         estimate D2E/DX2                !
 ! R9    R(4,12)                 1.54           estimate D2E/DX2                !
 ! R10   R(8,9)                  1.07           estimate D2E/DX2                !
 ! R11   R(8,10)                 1.07           estimate D2E/DX2                !
 ! R12   R(8,11)                 1.07           estimate D2E/DX2                !
 ! R13   R(12,13)                1.2273         estimate D2E/DX2                !
 ! R14   R(12,14)                1.54           estimate D2E/DX2                !
 ! R15   R(14,15)                1.07           estimate D2E/DX2                !
 ! R16   R(14,16)                1.07           estimate D2E/DX2                !
 ! R17   R(14,17)                1.07           estimate D2E/DX2                !
 ! A1    A(2,1,5)              110.0851         estimate D2E/DX2                !
 ! A2    A(2,1,8)              135.4644         estimate D2E/DX2                !
 ! A3    A(5,1,8)              114.4505         estimate D2E/DX2                !
 ! A4    A(1,2,3)              106.6433         estimate D2E/DX2                !
 ! A5    A(1,2,6)              127.7352         estimate D2E/DX2                !
 ! A6    A(3,2,6)              125.6215         estimate D2E/DX2                !
 ! A7    A(2,3,4)              106.588          estimate D2E/DX2                !
 ! A8    A(2,3,7)              125.6441         estimate D2E/DX2                !
 ! A9    A(4,3,7)              127.768          estimate D2E/DX2                !
 ! A10   A(3,4,5)              110.1235         estimate D2E/DX2                !
 ! A11   A(3,4,12)             135.4359         estimate D2E/DX2                !
 ! A12   A(5,4,12)             114.4407         estimate D2E/DX2                !
 ! A13   A(1,5,4)              106.5602         estimate D2E/DX2                !
 ! A14   A(1,8,9)              109.4712         estimate D2E/DX2                !
 ! A15   A(1,8,10)             109.4712         estimate D2E/DX2                !
 ! A16   A(1,8,11)             109.4712         estimate D2E/DX2                !
 ! A17   A(9,8,10)             109.4713         estimate D2E/DX2                !
 ! A18   A(9,8,11)             109.4712         estimate D2E/DX2                !
 ! A19   A(10,8,11)            109.4712         estimate D2E/DX2                !
 ! A20   A(4,12,13)            122.2249         estimate D2E/DX2                !
 ! A21   A(4,12,14)            115.5502         estimate D2E/DX2                !
 ! A22   A(13,12,14)           122.2249         estimate D2E/DX2                !
 ! A23   A(12,14,15)           109.4712         estimate D2E/DX2                !
 ! A24   A(12,14,16)           109.4712         estimate D2E/DX2                !
 ! A25   A(12,14,17)           109.4712         estimate D2E/DX2                !
 ! A26   A(15,14,16)           109.4712         estimate D2E/DX2                !
 ! A27   A(15,14,17)           109.4712         estimate D2E/DX2                !
 ! A28   A(16,14,17)           109.4712         estimate D2E/DX2                !
 ! D1    D(5,1,2,3)              0.0097         estimate D2E/DX2                !
 ! D2    D(5,1,2,6)           -179.9973         estimate D2E/DX2                !
 ! D3    D(8,1,2,3)            179.9992         estimate D2E/DX2                !
 ! D4    D(8,1,2,6)             -0.0078         estimate D2E/DX2                !
 ! D5    D(2,1,5,4)             -0.0117         estimate D2E/DX2                !
 ! D6    D(8,1,5,4)            179.9964         estimate D2E/DX2                !
 ! D7    D(2,1,8,9)            120.0147         estimate D2E/DX2                !
 ! D8    D(2,1,8,10)          -119.9852         estimate D2E/DX2                !
 ! D9    D(2,1,8,11)             0.0148         estimate D2E/DX2                !
 ! D10   D(5,1,8,9)            -59.9961         estimate D2E/DX2                !
 ! D11   D(5,1,8,10)            60.0039         estimate D2E/DX2                !
 ! D12   D(5,1,8,11)          -179.9961         estimate D2E/DX2                !
 ! D13   D(1,2,3,4)             -0.0039         estimate D2E/DX2                !
 ! D14   D(1,2,3,7)           -179.9997         estimate D2E/DX2                !
 ! D15   D(6,2,3,4)           -179.997          estimate D2E/DX2                !
 ! D16   D(6,2,3,7)              0.0071         estimate D2E/DX2                !
 ! D17   D(2,3,4,5)             -0.0034         estimate D2E/DX2                !
 ! D18   D(2,3,4,12)          -179.9989         estimate D2E/DX2                !
 ! D19   D(7,3,4,5)            179.9924         estimate D2E/DX2                !
 ! D20   D(7,3,4,12)            -0.0031         estimate D2E/DX2                !
 ! D21   D(3,4,5,1)              0.0092         estimate D2E/DX2                !
 ! D22   D(12,4,5,1)          -179.9942         estimate D2E/DX2                !
 ! D23   D(3,4,12,13)          180.0            estimate D2E/DX2                !
 ! D24   D(3,4,12,14)           -0.0022         estimate D2E/DX2                !
 ! D25   D(5,4,12,13)            0.0046         estimate D2E/DX2                !
 ! D26   D(5,4,12,14)         -179.9976         estimate D2E/DX2                !
 ! D27   D(4,12,14,15)         -59.9994         estimate D2E/DX2                !
 ! D28   D(4,12,14,16)          60.0006         estimate D2E/DX2                !
 ! D29   D(4,12,14,17)        -179.9994         estimate D2E/DX2                !
 ! D30   D(13,12,14,15)        119.9984         estimate D2E/DX2                !
 ! D31   D(13,12,14,16)       -120.0016         estimate D2E/DX2                !
 ! D32   D(13,12,14,17)         -0.0016         estimate D2E/DX2                !
 --------------------------------------------------------------------------------
 Trust Radius=3.00D-01 FncErr=1.00D-07 GrdErr=1.00D-06
 Number of steps in this run=     87 maximum allowed number of steps=    102.
 GradGradGradGradGradGradGradGradGradGradGradGradGradGradGradGradGradGrad

                          Input orientation:                          
 ---------------------------------------------------------------------
 Center     Atomic      Atomic             Coordinates (Angstroms)
 Number     Number       Type             X           Y           Z
 ---------------------------------------------------------------------
      1          6           0       -1.462180    0.360456    0.019141
      2          6           0       -1.052911   -0.956960    0.031843
      3          6           0        0.394975   -0.941593    0.018318
      4          6           0        0.774634    0.384682   -0.001848
      5          8           0       -0.352743    1.206779   -0.001878
      6          1           0       -1.675774   -1.846171    0.048801
      7          1           0        1.037093   -1.817093    0.023347
      8          6           0       -2.819249    1.088435    0.022520
      9          1           0       -2.887015    1.712594    0.888969
     10          1           0       -2.903292    1.690362   -0.858116
     11          1           0       -3.610337    0.368154    0.039056
     12          6           0        2.115419    1.141925   -0.023733
     13          8           0        2.174564    2.367713   -0.039680
     14          6           0        3.377057    0.258824   -0.024223
     15          1           0        3.388083   -0.347888    0.857071
     16          1           0        3.372009   -0.369882   -0.890020
     17          1           0        4.247673    0.880658   -0.040062
 ---------------------------------------------------------------------
                    Distance matrix (angstroms):
                    1          2          3          4          5
     1  C    0.000000
     2  C    1.379582   0.000000
     3  C    2.268118   1.448030   0.000000
     4  C    2.237044   2.267390   1.379693   0.000000
     5  O    1.395549   2.274453   2.274861   1.395286   0.000000
     6  H    2.217139   1.085791   2.259910   3.314177   3.327685
     7  H    3.314831   2.260092   1.085745   2.217506   3.328075
     8  C    1.540000   2.702532   3.801614   3.662220   2.469464
     9  H    2.148263   3.350391   4.309779   3.995570   2.733495
    10  H    2.148263   3.350261   4.309743   3.995639   2.733550
    11  H    2.148263   2.880349   4.214071   4.385193   3.364058
    12  C    3.662206   3.800884   2.702359   1.540000   2.469111
    13  O    4.154329   4.634129   3.757899   2.427683   2.781452
    14  C    4.840499   4.594115   3.214907   2.605561   3.848445
    15  H    4.972820   4.557894   3.164599   2.846843   4.141082
    16  H    4.972862   4.557895   3.164595   2.846853   4.141067
    17  H    5.733807   5.610543   4.262310   3.508483   4.612119
                    6          7          8          9         10
     6  H    0.000000
     7  H    2.713142   0.000000
     8  C    3.149625   4.828402   0.000000
     9  H    3.851986   5.348515   1.070000   0.000000
    10  H    3.851800   5.348444   1.070000   1.747303   0.000000
    11  H    2.940385   5.135578   1.070000   1.747303   1.747303
    12  C    4.827745   3.149729   4.935174   5.116936   5.117073
    13  O    5.708743   4.337097   5.155442   5.187596   5.187799
    14  C    5.474252   3.128438   6.251772   6.495073   6.495188
    15  H    5.342359   2.894963   6.425766   6.604806   6.832110
    16  H    5.342370   2.894908   6.425814   6.832049   6.604924
    17  H    6.521558   4.194008   7.070252   7.242858   7.243005
                   11         12         13         14         15
    11  H    0.000000
    12  C    5.778144   0.000000
    13  O    6.121235   1.227317   0.000000
    14  C    6.988536   1.540000   2.427683   0.000000
    15  H    7.082355   2.148263   3.106651   1.070000   0.000000
    16  H    7.082446   2.148263   3.106667   1.070000   1.747303
    17  H    7.875103   2.148263   2.551296   1.070000   1.747303
                   16         17
    16  H    0.000000
    17  H    1.747303   0.000000
 Stoichiometry    C7H8O2
 Framework group  C1[X(C7H8O2)]
 Deg. of freedom    45
 Full point group                 C1      NOp   1
 Largest Abelian subgroup         C1      NOp   1
 Largest concise Abelian subgroup C1      NOp   1
                         Standard orientation:                         
 ---------------------------------------------------------------------
 Center     Atomic      Atomic             Coordinates (Angstroms)
 Number     Number       Type             X           Y           Z
 ---------------------------------------------------------------------
      1          6           0        1.829207    0.015477    0.000045
      2          6           0        1.553910    1.367312   -0.000033
      3          6           0        0.111686    1.496854   -0.000008
      4          6           0       -0.398911    0.215119   -0.000005
      5          8           0        0.640527   -0.715683   -0.000104
      6          1           0        2.262730    2.189819    0.000005
      7          1           0       -0.439559    2.432253   -0.000057
      8          6           0        3.106621   -0.844648    0.000053
      9          1           0        3.120658   -1.462381    0.873615
     10          1           0        3.120844   -1.462121   -0.873688
     11          1           0        3.965913   -0.207061    0.000240
     12          6           0       -1.808865   -0.404258   -0.000005
     13          8           0       -1.990478   -1.618063   -0.000002
     14          6           0       -2.975787    0.600677    0.000046
     15          1           0       -2.916879    1.215607    0.873711
     16          1           0       -2.916917    1.215650   -0.873592
     17          1           0       -3.904349    0.069007    0.000053
 ---------------------------------------------------------------------
 Rotational constants (GHZ):      3.7332064      1.0542855      0.8304275
 Standard basis: 6-311+G(d,p) (5D, 7F)
 There are   255 symmetry adapted cartesian basis functions of A   symmetry.
 There are   246 symmetry adapted basis functions of A   symmetry.
   246 basis functions,   388 primitive gaussians,   255 cartesian basis functions
    33 alpha electrons       33 beta electrons
       nuclear repulsion energy       418.3608984092 Hartrees.
 NAtoms=   17 NActive=   17 NUniq=   17 SFac= 1.00D+00 NAtFMM=   60 NAOKFM=F Big=F
 Integral buffers will be    131072 words long.
 Raffenetti 2 integral format.
 Two-electron integral symmetry is turned on.
 One-electron integrals computed using PRISM.
 NBasis=   246 RedAO= T EigKep=  1.74D-06  NBF=   246
 NBsUse=   246 1.00D-06 EigRej= -1.00D+00 NBFU=   246
 ExpMin= 4.38D-02 ExpMax= 8.59D+03 ExpMxC= 1.30D+03 IAcc=2 IRadAn=         4 AccDes= 0.00D+00
 Harris functional with IExCor=  402 and IRadAn=       4 diagonalized for initial guess.
 HarFok:  IExCor=  402 AccDes= 0.00D+00 IRadAn=         4 IDoV= 1 UseB2=F ITyADJ=14
 ICtDFT=  3500011 ScaDFX=  1.000000  1.000000  1.000000  1.000000
 FoFCou: FMM=F IPFlag=           0 FMFlag=      100000 FMFlg1=           0
         NFxFlg=           0 DoJE=T BraDBF=F KetDBF=T FulRan=T
         wScrn=  0.000000 ICntrl=     500 IOpCl=  0 I1Cent=   200000004 NGrid=           0
         NMat0=    1 NMatS0=      1 NMatT0=    0 NMatD0=    1 NMtDS0=    0 NMtDT0=    0
 Petite list used in FoFCou.
 Keep R1 ints in memory in canonical form, NReq=470126872.
 Requested convergence on RMS density matrix=1.00D-08 within 128 cycles.
 Requested convergence on MAX density matrix=1.00D-06.
 Requested convergence on             energy=1.00D-06.
 No special actions if energy rises.
 SCF Done:  E(RB3LYP) =  -422.105882060     A.U. after   14 cycles
            NFock= 14  Conv=0.81D-08     -V/T= 2.0049

 **********************************************************************

            Population analysis using the SCF density.

 **********************************************************************

 Orbital symmetries:
       Occupied  (A) (A) (A) (A) (A) (A) (A) (A) (A) (A) (A) (A)
                 (A) (A) (A) (A) (A) (A) (A) (A) (A) (A) (A) (A)
                 (A) (A) (A) (A) (A) (A) (A) (A) (A)
       Virtual   (A) (A) (A) (A) (A) (A) (A) (A) (A) (A) (A) (A)
                 (A) (A) (A) (A) (A) (A) (A) (A) (A) (A) (A) (A)
                 (A) (A) (A) (A) (A) (A) (A) (A) (A) (A) (A) (A)
                 (A) (A) (A) (A) (A) (A) (A) (A) (A) (A) (A) (A)
                 (A) (A) (A) (A) (A) (A) (A) (A) (A) (A) (A) (A)
                 (A) (A) (A) (A) (A) (A) (A) (A) (A) (A) (A) (A)
                 (A) (A) (A) (A) (A) (A) (A) (A) (A) (A) (A) (A)
                 (A) (A) (A) (A) (A) (A) (A) (A) (A) (A) (A) (A)
                 (A) (A) (A) (A) (A) (A) (A) (A) (A) (A) (A) (A)
                 (A) (A) (A) (A) (A) (A) (A) (A) (A) (A) (A) (A)
                 (A) (A) (A) (A) (A) (A) (A) (A) (A) (A) (A) (A)
                 (A) (A) (A) (A) (A) (A) (A) (A) (A) (A) (A) (A)
                 (A) (A) (A) (A) (A) (A) (A) (A) (A) (A) (A) (A)
                 (A) (A) (A) (A) (A) (A) (A) (A) (A) (A) (A) (A)
                 (A) (A) (A) (A) (A) (A) (A) (A) (A) (A) (A) (A)
                 (A) (A) (A) (A) (A) (A) (A) (A) (A) (A) (A) (A)
                 (A) (A) (A) (A) (A) (A) (A) (A) (A) (A) (A) (A)
                 (A) (A) (A) (A) (A) (A) (A) (A) (A)
 The electronic state is 1-A.
 Alpha  occ. eigenvalues --  -19.19705 -19.11688 -10.27837 -10.25599 -10.24407
 Alpha  occ. eigenvalues --  -10.20203 -10.19248 -10.18782 -10.17545  -1.10777
 Alpha  occ. eigenvalues --   -1.03994  -0.81692  -0.79413  -0.75532  -0.70529
 Alpha  occ. eigenvalues --   -0.62134  -0.58727  -0.56247  -0.49650  -0.47388
 Alpha  occ. eigenvalues --   -0.46040  -0.45046  -0.44554  -0.43485  -0.42050
 Alpha  occ. eigenvalues --   -0.41545  -0.40516  -0.39891  -0.38449  -0.36658
 Alpha  occ. eigenvalues --   -0.29887  -0.26214  -0.24449
 Alpha virt. eigenvalues --   -0.06426  -0.00371   0.00674   0.01215   0.02199
 Alpha virt. eigenvalues --    0.03801   0.04069   0.04198   0.05372   0.05712
 Alpha virt. eigenvalues --    0.06342   0.06669   0.07168   0.07921   0.08429
 Alpha virt. eigenvalues --    0.09431   0.09525   0.10998   0.11242   0.11739
 Alpha virt. eigenvalues --    0.12518   0.13321   0.14059   0.14877   0.15716
 Alpha virt. eigenvalues --    0.16582   0.17598   0.18097   0.18774   0.19357
 Alpha virt. eigenvalues --    0.19571   0.20073   0.20287   0.20718   0.20951
 Alpha virt. eigenvalues --    0.21757   0.23488   0.23581   0.24322   0.24578
 Alpha virt. eigenvalues --    0.25993   0.27050   0.28605   0.28970   0.30979
 Alpha virt. eigenvalues --    0.32959   0.33501   0.33870   0.34700   0.35725
 Alpha virt. eigenvalues --    0.37428   0.38423   0.39736   0.41753   0.42171
 Alpha virt. eigenvalues --    0.42354   0.45294   0.45628   0.47657   0.48631
 Alpha virt. eigenvalues --    0.50521   0.53615   0.54188   0.54890   0.56541
 Alpha virt. eigenvalues --    0.56685   0.59241   0.60424   0.60591   0.60922
 Alpha virt. eigenvalues --    0.62222   0.63761   0.65223   0.67185   0.67383
 Alpha virt. eigenvalues --    0.69614   0.71364   0.72574   0.74994   0.77958
 Alpha virt. eigenvalues --    0.79168   0.81347   0.83355   0.85847   0.87557
 Alpha virt. eigenvalues --    0.91236   0.92541   0.93742   0.94904   0.98700
 Alpha virt. eigenvalues --    0.99548   1.00325   1.02228   1.05580   1.07861
 Alpha virt. eigenvalues --    1.08282   1.09322   1.17229   1.18676   1.19894
 Alpha virt. eigenvalues --    1.20640   1.22254   1.26805   1.30937   1.31359
 Alpha virt. eigenvalues --    1.33861   1.38276   1.40984   1.42481   1.44648
 Alpha virt. eigenvalues --    1.44979   1.49145   1.50300   1.53261   1.53867
 Alpha virt. eigenvalues --    1.54363   1.55342   1.57911   1.59141   1.61443
 Alpha virt. eigenvalues --    1.63232   1.66163   1.66340   1.70134   1.71937
 Alpha virt. eigenvalues --    1.72102   1.75533   1.78007   1.80282   1.80526
 Alpha virt. eigenvalues --    1.83726   1.86406   1.88832   1.90391   1.94582
 Alpha virt. eigenvalues --    1.95056   1.99450   2.00763   2.06337   2.06909
 Alpha virt. eigenvalues --    2.10173   2.13032   2.15691   2.19402   2.24185
 Alpha virt. eigenvalues --    2.24270   2.34676   2.35079   2.39489   2.46277
 Alpha virt. eigenvalues --    2.47609   2.48447   2.48809   2.49806   2.53561
 Alpha virt. eigenvalues --    2.53982   2.55813   2.57212   2.58668   2.62999
 Alpha virt. eigenvalues --    2.65113   2.67576   2.70207   2.71169   2.74430
 Alpha virt. eigenvalues --    2.76742   2.78434   2.82535   2.88362   2.89327
 Alpha virt. eigenvalues --    2.90300   2.92999   2.94181   2.96132   2.98420
 Alpha virt. eigenvalues --    3.04074   3.11499   3.13366   3.14737   3.19726
 Alpha virt. eigenvalues --    3.26696   3.31542   3.33927   3.39716   3.49711
 Alpha virt. eigenvalues --    3.54307   3.58322   3.73192   3.83285   3.83586
 Alpha virt. eigenvalues --    3.84632   3.87749   4.01250   4.07530   4.14360
 Alpha virt. eigenvalues --    4.21863   4.23891   4.41785   4.96768   5.05959
 Alpha virt. eigenvalues --    5.20168   5.41259   5.68046   5.78994  23.62123
 Alpha virt. eigenvalues --   23.75045  23.78447  23.97284  23.99533  24.06128
 Alpha virt. eigenvalues --   24.11010  49.88277  49.98828
          Condensed to atoms (all electrons):
               1          2          3          4          5          6
     1  C    7.013864  -1.555406   0.994739  -0.899552  -0.061892  -0.005304
     2  C   -1.555406   8.501752  -1.596232   1.423572   0.198490   0.368834
     3  C    0.994739  -1.596232   8.734681  -0.945771  -0.093195  -0.048963
     4  C   -0.899552   1.423572  -0.945771   8.990132   0.416116   0.020695
     5  O   -0.061892   0.198490  -0.093195   0.416116   8.005146   0.007152
     6  H   -0.005304   0.368834  -0.048963   0.020695   0.007152   0.521817
     7  H   -0.003851   0.020483   0.322266  -0.021772   0.009557  -0.003269
     8  C    0.283612  -0.839441   0.315112  -0.318997  -0.249437  -0.008475
     9  H    0.021645  -0.028264   0.005263  -0.003174  -0.006172   0.000035
    10  H    0.021649  -0.028253   0.005242  -0.003155  -0.006169   0.000035
    11  H   -0.122871   0.030323  -0.001060   0.004746   0.014054  -0.000002
    12  C    0.189292  -0.110093  -0.907336  -1.912016  -0.294817   0.015918
    13  O    0.010842   0.005173  -0.054489  -0.176429   0.049161  -0.000025
    14  C    0.009817  -0.040211  -0.324910  -0.946053   0.033790   0.000125
    15  H   -0.003378   0.003431   0.003701  -0.002334  -0.000664  -0.000005
    16  H   -0.003331   0.003377   0.003782  -0.002248  -0.000666  -0.000005
    17  H    0.003229  -0.000856   0.005442   0.053591  -0.000474   0.000000
               7          8          9         10         11         12
     1  C   -0.003851   0.283612   0.021645   0.021649  -0.122871   0.189292
     2  C    0.020483  -0.839441  -0.028264  -0.028253   0.030323  -0.110093
     3  C    0.322266   0.315112   0.005263   0.005242  -0.001060  -0.907336
     4  C   -0.021772  -0.318997  -0.003174  -0.003155   0.004746  -1.912016
     5  O    0.009557  -0.249437  -0.006172  -0.006169   0.014054  -0.294817
     6  H   -0.003269  -0.008475   0.000035   0.000035  -0.000002   0.015918
     7  H    0.514980   0.004278   0.000008   0.000008  -0.000015   0.025254
     8  C    0.004278   5.892453   0.379614   0.379593   0.450939   0.006833
     9  H    0.000008   0.379614   0.517802  -0.028718  -0.023612   0.001320
    10  H    0.000008   0.379593  -0.028718   0.517799  -0.023611   0.001322
    11  H   -0.000015   0.450939  -0.023612  -0.023611   0.519710  -0.001352
    12  C    0.025254   0.006833   0.001320   0.001322  -0.001352   8.101144
    13  O   -0.000796  -0.006089  -0.000076  -0.000076   0.000029   0.526926
    14  C   -0.006156  -0.007271  -0.000067  -0.000067   0.000113   0.382143
    15  H   -0.000093  -0.000098   0.000000   0.000000   0.000000  -0.021640
    16  H   -0.000092  -0.000094   0.000000   0.000000   0.000000  -0.021820
    17  H    0.000103   0.000222   0.000000   0.000000   0.000000  -0.056131
              13         14         15         16         17
     1  C    0.010842   0.009817  -0.003378  -0.003331   0.003229
     2  C    0.005173  -0.040211   0.003431   0.003377  -0.000856
     3  C   -0.054489  -0.324910   0.003701   0.003782   0.005442
     4  C   -0.176429  -0.946053  -0.002334  -0.002248   0.053591
     5  O    0.049161   0.033790  -0.000664  -0.000666  -0.000474
     6  H   -0.000025   0.000125  -0.000005  -0.000005   0.000000
     7  H   -0.000796  -0.006156  -0.000093  -0.000092   0.000103
     8  C   -0.006089  -0.007271  -0.000098  -0.000094   0.000222
     9  H   -0.000076  -0.000067   0.000000   0.000000   0.000000
    10  H   -0.000076  -0.000067   0.000000   0.000000   0.000000
    11  H    0.000029   0.000113   0.000000   0.000000   0.000000
    12  C    0.526926   0.382143  -0.021640  -0.021820  -0.056131
    13  O    7.977718  -0.072362   0.003020   0.003024  -0.001757
    14  C   -0.072362   6.223194   0.385552   0.385567   0.377438
    15  H    0.003020   0.385552   0.523872  -0.029454  -0.018599
    16  H    0.003024   0.385567  -0.029454   0.523870  -0.018600
    17  H   -0.001757   0.377438  -0.018599  -0.018600   0.484207
 Mulliken charges:
               1
     1  C    0.106897
     2  C   -0.356678
     3  C   -0.418273
     4  C    0.322649
     5  O   -0.019979
     6  H    0.131436
     7  H    0.139108
     8  C   -0.282754
     9  H    0.164397
    10  H    0.164402
    11  H    0.152610
    12  C    0.075054
    13  O   -0.263794
    14  C   -0.400642
    15  H    0.156690
    16  H    0.156690
    17  H    0.172186
 Sum of Mulliken charges =   0.00000
 Mulliken charges with hydrogens summed into heavy atoms:
               1
     1  C    0.106897
     2  C   -0.225241
     3  C   -0.279165
     4  C    0.322649
     5  O   -0.019979
     8  C    0.198655
    12  C    0.075054
    13  O   -0.263794
    14  C    0.084924
 Electronic spatial extent (au):  <R**2>=           1374.1611
 Charge=              0.0000 electrons
 Dipole moment (field-independent basis, Debye):
    X=              1.9730    Y=              3.6580    Z=              0.0001  Tot=              4.1562
 Quadrupole moment (field-independent basis, Debye-Ang):
   XX=            -45.1263   YY=            -55.7074   ZZ=            -54.4529
   XY=             -7.1222   XZ=              0.0001   YZ=             -0.0003
 Traceless Quadrupole moment (field-independent basis, Debye-Ang):
   XX=              6.6359   YY=             -3.9452   ZZ=             -2.6907
   XY=             -7.1222   XZ=              0.0001   YZ=             -0.0003
 Octapole moment (field-independent basis, Debye-Ang**2):
  XXX=             12.7868  YYY=             10.4869  ZZZ=             -0.0007  XYY=             13.1823
  XXY=              7.9284  XXZ=              0.0006  XZZ=             -3.8866  YZZ=             -6.6063
  YYZ=             -0.0002  XYZ=              0.0001
 Hexadecapole moment (field-independent basis, Debye-Ang**3):
 XXXX=          -1278.1663 YYYY=           -401.1796 ZZZZ=            -71.6556 XXXY=            -22.6407
 XXXZ=              0.0016 YYYX=            -12.2687 YYYZ=             -0.0021 ZZZX=             -0.0017
 ZZZY=              0.0005 XXYY=           -304.6810 XXZZ=           -241.4795 YYZZ=            -81.6596
 XXYZ=              0.0010 YYXZ=              0.0008 ZZXY=             -6.2975
 N-N= 4.183608984092D+02 E-N=-1.821593040806D+03  KE= 4.200614062417D+02
 There are a total of      140094 grid points.
 ElSum from          density=       66.0000252979
 ElSum from atomic densities=       66.0002809787

 Hirshfeld populations at iteration   1 (CX, CA, CB, DipXYZ):
               1          2          3          4          5          6
     1  C    0.000000   2.958738   2.958738   0.000986  -0.126904   0.000013
     2  C    0.000000   3.042978   3.042978   0.045803   0.100726  -0.000012
     3  C    0.000000   3.032606   3.032606  -0.026348   0.115871   0.000001
     4  C    0.000000   2.981964   2.981964   0.001033  -0.104052   0.000003
     5  O    0.000000   4.047380   4.047380   0.017257   0.117520   0.000005
     6  H    0.000002   0.471086   0.471086   0.108326   0.133963   0.000003
     7  H    0.000001   0.469162   0.469162  -0.078352   0.153216  -0.000011
     8  C    0.000000   3.042817   3.042817   0.010115  -0.008413  -0.000001
     9  H    0.000001   0.473212   0.473212   0.008511  -0.096830   0.129916
    10  H    0.000001   0.473212   0.473212   0.008537  -0.096792  -0.129942
    11  H    0.000001   0.475004   0.475004   0.131955   0.089002   0.000027
    12  C    0.000000   2.919278   2.919278  -0.015906   0.037754  -0.000005
    13  O    0.000011   4.135677   4.135677   0.012601   0.116491   0.000002
    14  C    0.000000   3.050080   3.050080  -0.008054   0.000806   0.000001
    15  H    0.000001   0.476259   0.476259  -0.001257   0.086548   0.129783
    16  H    0.000001   0.476260   0.476260  -0.001263   0.086554  -0.129778
    17  H    0.000001   0.474299   0.474299  -0.144171  -0.066324   0.000001
       Tot   0.000021  33.000013  33.000013   0.069773   0.539135   0.000006

 Dip from Atomic Chgs              0.706459   0.900041   0.000041
         Total Dipole              0.776232   1.439177   0.000047

 Hirshfeld charges, spin densities, dipoles, and CM5 charges using IRadAn=      4:
              Q-H        S-H        Dx         Dy         Dz        Q-CM5   
     1  C    0.082525   0.000000   0.000986  -0.126904   0.000013   0.092036
     2  C   -0.085956   0.000000   0.045803   0.100726  -0.000012  -0.135188
     3  C   -0.065212   0.000000  -0.026348   0.115871   0.000001  -0.114087
     4  C    0.036072   0.000000   0.001033  -0.104052   0.000003   0.056389
     5  O   -0.094761   0.000000   0.017257   0.117520   0.000005  -0.155169
     6  H    0.057828   0.000000   0.108326   0.133963   0.000003   0.112658
     7  H    0.061677   0.000000  -0.078352   0.153216  -0.000011   0.116854
     8  C   -0.085634   0.000000   0.010115  -0.008413  -0.000001  -0.234910
     9  H    0.053575   0.000000   0.008511  -0.096830   0.129916   0.109575
    10  H    0.053575   0.000000   0.008537  -0.096792  -0.129942   0.109575
    11  H    0.049992   0.000000   0.131955   0.089002   0.000027   0.104719
    12  C    0.161444   0.000000  -0.015906   0.037754  -0.000005   0.187304
    13  O   -0.271354   0.000000   0.012601   0.116491   0.000002  -0.315003
    14  C   -0.100161   0.000000  -0.008054   0.000806   0.000001  -0.249221
    15  H    0.047482   0.000000  -0.001257   0.086548   0.129783   0.102968
    16  H    0.047481   0.000000  -0.001263   0.086554  -0.129778   0.102968
    17  H    0.051402   0.000000  -0.144171  -0.066324   0.000001   0.108506
       Tot  -0.000025   0.000000   0.069773   0.539135   0.000006  -0.000025
 Hirshfeld charges with hydrogens summed into heavy atoms:
              Q-H       Q-CM5   
     1  C    0.082525   0.092036
     2  C   -0.028129  -0.022530
     3  C   -0.003535   0.002767
     4  C    0.036072   0.056389
     5  O   -0.094761  -0.155169
     8  C    0.071509   0.088959
    12  C    0.161444   0.187304
    13  O   -0.271354  -0.315003
    14  C    0.046203   0.065221
 
 EQQ= 0.000000000000E+00 EQD= 0.000000000000E+00 EDD= 0.224907674127E-02
 EQQ+QD+DD= 0.224907674127E-02
 
          MBS Condensed to atoms (all electrons):
               1          2          3          4          5          6
     1  C    4.804095   0.539272  -0.050982  -0.062526   0.312322  -0.018706
     2  C    0.539272   4.900082   0.457526  -0.052415  -0.035397   0.387559
     3  C   -0.050982   0.457526   4.878516   0.530491  -0.035526  -0.018695
     4  C   -0.062526  -0.052415   0.530491   4.891209   0.305132   0.001616
     5  O    0.312322  -0.035397  -0.035526   0.305132   7.767257   0.000723
     6  H   -0.018706   0.387559  -0.018695   0.001616   0.000723   0.525800
     7  H    0.001630  -0.018325   0.386757  -0.018740   0.000718  -0.001337
     8  C    0.374646  -0.018902   0.000795   0.001473  -0.019375  -0.000684
     9  H   -0.021633   0.000445  -0.000026   0.000032  -0.000614   0.000010
    10  H   -0.021632   0.000444  -0.000026   0.000032  -0.000614   0.000010
    11  H   -0.019283  -0.001727   0.000024  -0.000045   0.000631   0.000211
    12  C    0.001288   0.000652  -0.015348   0.370491  -0.017276  -0.000008
    13  O    0.000005  -0.000003   0.000200  -0.026089   0.000018   0.000000
    14  C   -0.000012  -0.000002  -0.000258  -0.038607   0.000188   0.000000
    15  H    0.000000   0.000004  -0.000200  -0.000105   0.000001   0.000000
    16  H    0.000000   0.000004  -0.000200  -0.000105   0.000001   0.000000
    17  H    0.000000   0.000000   0.000011   0.001192  -0.000005   0.000000
               7          8          9         10         11         12
     1  C    0.001630   0.374646  -0.021633  -0.021632  -0.019283   0.001288
     2  C   -0.018325  -0.018902   0.000445   0.000444  -0.001727   0.000652
     3  C    0.386757   0.000795  -0.000026  -0.000026   0.000024  -0.015348
     4  C   -0.018740   0.001473   0.000032   0.000032  -0.000045   0.370491
     5  O    0.000718  -0.019375  -0.000614  -0.000614   0.000631  -0.017276
     6  H   -0.001337  -0.000684   0.000010   0.000010   0.000211  -0.000008
     7  H    0.522440  -0.000010   0.000000   0.000000  -0.000001  -0.000601
     8  C   -0.000010   4.795551   0.379828   0.379827   0.380406  -0.000007
     9  H    0.000000   0.379828   0.557965  -0.022054  -0.021052   0.000000
    10  H    0.000000   0.379827  -0.022054   0.557966  -0.021052   0.000000
    11  H   -0.000001   0.380406  -0.021052  -0.021052   0.567433   0.000000
    12  C   -0.000601  -0.000007   0.000000   0.000000   0.000000   4.575720
    13  O    0.000002   0.000000   0.000000   0.000000   0.000000   0.456272
    14  C    0.000076   0.000000   0.000000   0.000000   0.000000   0.352801
    15  H    0.000040   0.000000   0.000000   0.000000   0.000000  -0.018957
    16  H    0.000040   0.000000   0.000000   0.000000   0.000000  -0.018957
    17  H   -0.000002   0.000000   0.000000   0.000000   0.000000  -0.019583
              13         14         15         16         17
     1  C    0.000005  -0.000012   0.000000   0.000000   0.000000
     2  C   -0.000003  -0.000002   0.000004   0.000004   0.000000
     3  C    0.000200  -0.000258  -0.000200  -0.000200   0.000011
     4  C   -0.026089  -0.038607  -0.000105  -0.000105   0.001192
     5  O    0.000018   0.000188   0.000001   0.000001  -0.000005
     6  H    0.000000   0.000000   0.000000   0.000000   0.000000
     7  H    0.000002   0.000076   0.000040   0.000040  -0.000002
     8  C    0.000000   0.000000   0.000000   0.000000   0.000000
     9  H    0.000000   0.000000   0.000000   0.000000   0.000000
    10  H    0.000000   0.000000   0.000000   0.000000   0.000000
    11  H    0.000000   0.000000   0.000000   0.000000   0.000000
    12  C    0.456272   0.352801  -0.018957  -0.018957  -0.019583
    13  O    8.017675  -0.027663   0.000444   0.000444  -0.000292
    14  C   -0.027663   4.891842   0.373919   0.373919   0.378657
    15  H    0.000444   0.373919   0.569584  -0.019949  -0.020481
    16  H    0.000444   0.373919  -0.019949   0.569586  -0.020481
    17  H   -0.000292   0.378657  -0.020481  -0.020481   0.553951
 MBS Mulliken charges:
               1
     1  C    0.161515
     2  C   -0.159216
     3  C   -0.133060
     4  C    0.096962
     5  O   -0.278186
     6  H    0.123501
     7  H    0.127311
     8  C   -0.273547
     9  H    0.127098
    10  H    0.127098
    11  H    0.114455
    12  C    0.333513
    13  O   -0.421014
    14  C   -0.304860
    15  H    0.115700
    16  H    0.115698
    17  H    0.127032
 Sum of MBS Mulliken charges =   0.00000
 MBS Mulliken charges with hydrogens summed into heavy atoms:
               1
     1  C    0.161515
     2  C   -0.035715
     3  C   -0.005749
     4  C    0.096962
     5  O   -0.278186
     8  C    0.095103
    12  C    0.333513
    13  O   -0.421014
    14  C    0.053571
 Breneman (CHELPG) radii used.
 Generate Potential Derived Charges using the Breneman model, NDens= 1.
 Grid spacing= 0.300 Box extension= 2.800
 NStep X,Y,Z=   46     34     26   Total possible points=       40664
 Number of Points to Fit=   12405

 **********************************************************************

            Electrostatic Properties Using The SCF Density

 **********************************************************************

       Atomic Center    1 is at   1.829207  0.015477  0.000045
       Atomic Center    2 is at   1.553910  1.367312 -0.000033
       Atomic Center    3 is at   0.111686  1.496854 -0.000008
       Atomic Center    4 is at  -0.398911  0.215119 -0.000005
       Atomic Center    5 is at   0.640527 -0.715683 -0.000104
       Atomic Center    6 is at   2.262730  2.189819  0.000005
       Atomic Center    7 is at  -0.439559  2.432253 -0.000057
       Atomic Center    8 is at   3.106621 -0.844648  0.000053
       Atomic Center    9 is at   3.120658 -1.462381  0.873615
       Atomic Center   10 is at   3.120844 -1.462121 -0.873688
       Atomic Center   11 is at   3.965913 -0.207061  0.000240
       Atomic Center   12 is at  -1.808865 -0.404258 -0.000005
       Atomic Center   13 is at  -1.990478 -1.618063 -0.000002
       Atomic Center   14 is at  -2.975787  0.600677  0.000046
       Atomic Center   15 is at  -2.916879  1.215607  0.873711
       Atomic Center   16 is at  -2.916917  1.215650 -0.873592
       Atomic Center   17 is at  -3.904349  0.069007  0.000053
   12405 points will be used for fitting atomic charges
 Fitting point charges to electrostatic potential
 Charges from ESP fit, RMS=   0.00348 RRMS=   0.19355:
 ESP charges:
               1
     1  C    0.323055
     2  C   -0.272418
     3  C   -0.114938
     4  C   -0.044364
     5  O   -0.206793
     6  H    0.145388
     7  H    0.137512
     8  C   -0.350027
     9  H    0.123157
    10  H    0.123161
    11  H    0.106740
    12  C    0.578353
    13  O   -0.518708
    14  C   -0.196901
    15  H    0.042968
    16  H    0.042970
    17  H    0.080846
 Sum of ESP charges =   0.00000
 ESP charges with hydrogens summed into heavy atoms:
               1
     1  C    0.323055
     2  C   -0.127030
     3  C    0.022574
     4  C   -0.044364
     5  O   -0.206793
     8  C    0.003030
    12  C    0.578353
    13  O   -0.518708
    14  C   -0.030117
 Charge=   0.00000 Dipole=     2.0130     3.6620     0.0001 Tot=     4.1788
 -----------------------------------------------------------------

              Electrostatic Properties (Atomic Units)

 -----------------------------------------------------------------
    Center     Electric         -------- Electric Field --------
               Potential          X             Y             Z
 -----------------------------------------------------------------
    1 Atom    -14.693602
    2 Atom    -14.757091
    3 Atom    -14.748322
    4 Atom    -14.705491
    5 Atom    -22.300804
    6 Atom     -1.077710
    7 Atom     -1.071524
    8 Atom    -14.758243
    9 Atom     -1.099087
   10 Atom     -1.099086
   11 Atom     -1.097170
   12 Atom    -14.672553
   13 Atom    -22.384142
   14 Atom    -14.772457
   15 Atom     -1.096491
   16 Atom     -1.096492
   17 Atom     -1.107580
 -----------------------------------------------------------------
 ******************************Gaussian NBO Version 3.1******************************
             N A T U R A L   A T O M I C   O R B I T A L   A N D
          N A T U R A L   B O N D   O R B I T A L   A N A L Y S I S
 ******************************Gaussian NBO Version 3.1******************************
       /RESON  / : Allow strongly delocalized NBO set

 Analyzing the SCF density

 Job title: Title Card Required                                             

 Storage needed:    182678 in NPA ( 536869297 available)


 NATURAL POPULATIONS:  Natural atomic orbital occupancies 
                                                          
   NAO  Atom  No  lang   Type(AO)    Occupancy      Energy
 ----------------------------------------------------------
     1    C    1  S      Cor( 1S)     1.99905     -10.13510
     2    C    1  S      Val( 2S)     0.88993      -0.20292
     3    C    1  S      Ryd( 3S)     0.00134       0.76037
     4    C    1  S      Ryd( 4S)     0.00010       1.10733
     5    C    1  S      Ryd( 5S)     0.00001      22.87398
     6    C    1  px     Val( 2p)     0.79903      -0.05262
     7    C    1  px     Ryd( 4p)     0.00509       1.16165
     8    C    1  px     Ryd( 3p)     0.00037       0.66556
     9    C    1  px     Ryd( 5p)     0.00010       2.73509
    10    C    1  py     Val( 2p)     0.95696      -0.06226
    11    C    1  py     Ryd( 4p)     0.00715       0.96557
    12    C    1  py     Ryd( 3p)     0.00041       0.69514
    13    C    1  py     Ryd( 5p)     0.00012       2.86200
    14    C    1  pz     Val( 2p)     0.98453      -0.13669
    15    C    1  pz     Ryd( 3p)     0.00195       0.61022
    16    C    1  pz     Ryd( 4p)     0.00027       0.63172
    17    C    1  pz     Ryd( 5p)     0.00009       2.38343
    18    C    1  dxy    Ryd( 3d)     0.00193       2.41415
    19    C    1  dxz    Ryd( 3d)     0.00153       1.57569
    20    C    1  dyz    Ryd( 3d)     0.00138       1.62880
    21    C    1  dx2y2  Ryd( 3d)     0.00174       2.39889
    22    C    1  dz2    Ryd( 3d)     0.00068       1.98556

    23    C    2  S      Cor( 1S)     1.99903     -10.05007
    24    C    2  S      Val( 2S)     0.97244      -0.19361
    25    C    2  S      Ryd( 3S)     0.00111       0.80386
    26    C    2  S      Ryd( 4S)     0.00007       1.36256
    27    C    2  S      Ryd( 5S)     0.00001      22.46818
    28    C    2  px     Val( 2p)     1.08991      -0.07803
    29    C    2  px     Ryd( 4p)     0.00370       0.81848
    30    C    2  px     Ryd( 3p)     0.00035       0.46904
    31    C    2  px     Ryd( 5p)     0.00012       2.99900
    32    C    2  py     Val( 2p)     1.14483      -0.08619
    33    C    2  py     Ryd( 4p)     0.00455       0.87411
    34    C    2  py     Ryd( 3p)     0.00034       0.47440
    35    C    2  py     Ryd( 5p)     0.00011       3.00644
    36    C    2  pz     Val( 2p)     1.09623      -0.13049
    37    C    2  pz     Ryd( 4p)     0.00176       0.47636
    38    C    2  pz     Ryd( 3p)     0.00038       0.31623
    39    C    2  pz     Ryd( 5p)     0.00004       2.66058
    40    C    2  dxy    Ryd( 3d)     0.00068       2.37453
    41    C    2  dxz    Ryd( 3d)     0.00050       1.59745
    42    C    2  dyz    Ryd( 3d)     0.00075       1.65906
    43    C    2  dx2y2  Ryd( 3d)     0.00077       2.58261
    44    C    2  dz2    Ryd( 3d)     0.00045       2.07261

    45    C    3  S      Cor( 1S)     1.99907     -10.05942
    46    C    3  S      Val( 2S)     0.97497      -0.20149
    47    C    3  S      Ryd( 3S)     0.00119       0.80588
    48    C    3  S      Ryd( 4S)     0.00006       1.58921
    49    C    3  S      Ryd( 5S)     0.00001      22.20187
    50    C    3  px     Val( 2p)     1.07104      -0.08028
    51    C    3  px     Ryd( 4p)     0.00287       0.82255
    52    C    3  px     Ryd( 3p)     0.00048       0.46211
    53    C    3  px     Ryd( 5p)     0.00015       3.09366
    54    C    3  py     Val( 2p)     1.16115      -0.08449
    55    C    3  py     Ryd( 4p)     0.00452       0.94909
    56    C    3  py     Ryd( 3p)     0.00036       0.32629
    57    C    3  py     Ryd( 5p)     0.00009       3.10987
    58    C    3  pz     Val( 2p)     1.02927      -0.13272
    59    C    3  pz     Ryd( 4p)     0.00131       0.49077
    60    C    3  pz     Ryd( 3p)     0.00039       0.30495
    61    C    3  pz     Ryd( 5p)     0.00006       2.67370
    62    C    3  dxy    Ryd( 3d)     0.00081       2.43582
    63    C    3  dxz    Ryd( 3d)     0.00062       1.58873
    64    C    3  dyz    Ryd( 3d)     0.00069       1.65791
    65    C    3  dx2y2  Ryd( 3d)     0.00059       2.54290
    66    C    3  dz2    Ryd( 3d)     0.00045       2.08704

    67    C    4  S      Cor( 1S)     1.99890     -10.12424
    68    C    4  S      Val( 2S)     0.90449      -0.19928
    69    C    4  S      Ryd( 3S)     0.00223       0.80867
    70    C    4  S      Ryd( 4S)     0.00012       0.92765
    71    C    4  S      Ryd( 5S)     0.00002      23.08442
    72    C    4  px     Val( 2p)     0.89159      -0.06696
    73    C    4  px     Ryd( 4p)     0.00516       1.28527
    74    C    4  px     Ryd( 3p)     0.00026       0.60493
    75    C    4  px     Ryd( 5p)     0.00011       2.94618
    76    C    4  py     Val( 2p)     0.90725      -0.06580
    77    C    4  py     Ryd( 4p)     0.00961       1.12109
    78    C    4  py     Ryd( 3p)     0.00028       0.54898
    79    C    4  py     Ryd( 5p)     0.00015       3.00844
    80    C    4  pz     Val( 2p)     1.08199      -0.14021
    81    C    4  pz     Ryd( 4p)     0.00160       0.61709
    82    C    4  pz     Ryd( 3p)     0.00030       0.40916
    83    C    4  pz     Ryd( 5p)     0.00007       2.65129
    84    C    4  dxy    Ryd( 3d)     0.00197       2.52614
    85    C    4  dxz    Ryd( 3d)     0.00117       1.56054
    86    C    4  dyz    Ryd( 3d)     0.00139       1.60868
    87    C    4  dx2y2  Ryd( 3d)     0.00166       2.32569
    88    C    4  dz2    Ryd( 3d)     0.00069       1.99177

    89    O    5  S      Cor( 1S)     1.99973     -18.97539
    90    O    5  S      Val( 2S)     1.61846      -0.91444
    91    O    5  S      Ryd( 3S)     0.00174       0.62235
    92    O    5  S      Ryd( 4S)     0.00007       1.39065
    93    O    5  S      Ryd( 5S)     0.00000      49.60298
    94    O    5  px     Val( 2p)     1.39335      -0.33152
    95    O    5  px     Ryd( 3p)     0.00188       0.93779
    96    O    5  px     Ryd( 4p)     0.00050       1.01974
    97    O    5  px     Ryd( 5p)     0.00001       5.22305
    98    O    5  py     Val( 2p)     1.73244      -0.36537
    99    O    5  py     Ryd( 3p)     0.00466       0.46149
   100    O    5  py     Ryd( 4p)     0.00074       1.00987
   101    O    5  py     Ryd( 5p)     0.00007       5.07266
   102    O    5  pz     Val( 2p)     1.70645      -0.33422
   103    O    5  pz     Ryd( 3p)     0.00186       0.43360
   104    O    5  pz     Ryd( 4p)     0.00019       0.84137
   105    O    5  pz     Ryd( 5p)     0.00001       4.89516
   106    O    5  dxy    Ryd( 3d)     0.00149       3.56897
   107    O    5  dxz    Ryd( 3d)     0.00031       2.91026
   108    O    5  dyz    Ryd( 3d)     0.00107       2.88716
   109    O    5  dx2y2  Ryd( 3d)     0.00081       3.14487
   110    O    5  dz2    Ryd( 3d)     0.00063       3.24232

   111    H    6  S      Val( 1S)     0.76985       0.03257
   112    H    6  S      Ryd( 2S)     0.00046       0.67719
   113    H    6  S      Ryd( 3S)     0.00024       1.92311
   114    H    6  px     Ryd( 2p)     0.00025       2.24953
   115    H    6  py     Ryd( 2p)     0.00032       2.38286
   116    H    6  pz     Ryd( 2p)     0.00017       1.58001

   117    H    7  S      Val( 1S)     0.77004       0.02932
   118    H    7  S      Ryd( 2S)     0.00051       0.81047
   119    H    7  S      Ryd( 3S)     0.00025       1.78479
   120    H    7  px     Ryd( 2p)     0.00018       2.12439
   121    H    7  py     Ryd( 2p)     0.00039       2.51869
   122    H    7  pz     Ryd( 2p)     0.00017       1.57624

   123    C    8  S      Cor( 1S)     1.99926     -10.04159
   124    C    8  S      Val( 2S)     1.08886      -0.26349
   125    C    8  S      Ryd( 3S)     0.00066       0.95826
   126    C    8  S      Ryd( 4S)     0.00006       1.12391
   127    C    8  S      Ryd( 5S)     0.00000      22.74982
   128    C    8  px     Val( 2p)     1.10604      -0.10994
   129    C    8  px     Ryd( 3p)     0.00145       0.56677
   130    C    8  px     Ryd( 4p)     0.00020       0.73674
   131    C    8  px     Ryd( 5p)     0.00005       2.50321
   132    C    8  py     Val( 2p)     1.17678      -0.11122
   133    C    8  py     Ryd( 3p)     0.00181       0.53258
   134    C    8  py     Ryd( 4p)     0.00009       0.73759
   135    C    8  py     Ryd( 5p)     0.00004       2.53917
   136    C    8  pz     Val( 2p)     1.22500      -0.11272
   137    C    8  pz     Ryd( 3p)     0.00054       0.51055
   138    C    8  pz     Ryd( 4p)     0.00007       0.71783
   139    C    8  pz     Ryd( 5p)     0.00007       2.54936
   140    C    8  dxy    Ryd( 3d)     0.00092       2.30233
   141    C    8  dxz    Ryd( 3d)     0.00022       1.74557
   142    C    8  dyz    Ryd( 3d)     0.00105       2.24686
   143    C    8  dx2y2  Ryd( 3d)     0.00026       1.97097
   144    C    8  dz2    Ryd( 3d)     0.00071       2.13225

   145    H    9  S      Val( 1S)     0.77636       0.03356
   146    H    9  S      Ryd( 2S)     0.00087       0.74424
   147    H    9  S      Ryd( 3S)     0.00015       1.96123
   148    H    9  px     Ryd( 2p)     0.00015       1.72400
   149    H    9  py     Ryd( 2p)     0.00016       2.09665
   150    H    9  pz     Ryd( 2p)     0.00022       2.41120

   151    H   10  S      Val( 1S)     0.77636       0.03356
   152    H   10  S      Ryd( 2S)     0.00087       0.74416
   153    H   10  S      Ryd( 3S)     0.00015       1.96132
   154    H   10  px     Ryd( 2p)     0.00015       1.72401
   155    H   10  py     Ryd( 2p)     0.00016       2.09636
   156    H   10  pz     Ryd( 2p)     0.00022       2.41145

   157    H   11  S      Val( 1S)     0.78456       0.02591
   158    H   11  S      Ryd( 2S)     0.00047       0.56240
   159    H   11  S      Ryd( 3S)     0.00009       2.12816
   160    H   11  px     Ryd( 2p)     0.00025       2.35990
   161    H   11  py     Ryd( 2p)     0.00018       2.07678
   162    H   11  pz     Ryd( 2p)     0.00008       1.73525

   163    C   12  S      Cor( 1S)     1.99937     -10.16203
   164    C   12  S      Val( 2S)     0.87116      -0.19496
   165    C   12  S      Ryd( 3S)     0.00535       0.79178
   166    C   12  S      Ryd( 4S)     0.00022       1.47034
   167    C   12  S      Ryd( 5S)     0.00003      22.23370
   168    C   12  px     Val( 2p)     0.99073      -0.06608
   169    C   12  px     Ryd( 4p)     0.00389       1.14783
   170    C   12  px     Ryd( 3p)     0.00068       0.45556
   171    C   12  px     Ryd( 5p)     0.00017       2.53434
   172    C   12  py     Val( 2p)     0.82254      -0.02143
   173    C   12  py     Ryd( 4p)     0.01673       0.96752
   174    C   12  py     Ryd( 3p)     0.00041       0.38597
   175    C   12  py     Ryd( 5p)     0.00013       2.83486
   176    C   12  pz     Val( 2p)     0.75097      -0.12366
   177    C   12  pz     Ryd( 4p)     0.00103       0.65716
   178    C   12  pz     Ryd( 3p)     0.00039       0.32074
   179    C   12  pz     Ryd( 5p)     0.00005       2.53646
   180    C   12  dxy    Ryd( 3d)     0.00395       2.40332
   181    C   12  dxz    Ryd( 3d)     0.00051       1.56051
   182    C   12  dyz    Ryd( 3d)     0.00337       1.62061
   183    C   12  dx2y2  Ryd( 3d)     0.00179       2.47338
   184    C   12  dz2    Ryd( 3d)     0.00042       2.00336

   185    O   13  S      Cor( 1S)     1.99976     -18.85383
   186    O   13  S      Val( 2S)     1.70389      -0.89326
   187    O   13  S      Ryd( 4S)     0.00163       1.34878
   188    O   13  S      Ryd( 3S)     0.00007       1.34648
   189    O   13  S      Ryd( 5S)     0.00000      49.63031
   190    O   13  px     Val( 2p)     1.86929      -0.26437
   191    O   13  px     Ryd( 3p)     0.00503       0.74661
   192    O   13  px     Ryd( 4p)     0.00008       1.64555
   193    O   13  px     Ryd( 5p)     0.00001       4.33231
   194    O   13  py     Val( 2p)     1.58475      -0.30331
   195    O   13  py     Ryd( 3p)     0.00074       0.66120
   196    O   13  py     Ryd( 4p)     0.00014       1.93645
   197    O   13  py     Ryd( 5p)     0.00007       4.22535
   198    O   13  pz     Val( 2p)     1.37063      -0.24837
   199    O   13  pz     Ryd( 3p)     0.00113       0.60014
   200    O   13  pz     Ryd( 4p)     0.00001       1.67613
   201    O   13  pz     Ryd( 5p)     0.00003       4.15023
   202    O   13  dxy    Ryd( 3d)     0.00134       3.25436
   203    O   13  dxz    Ryd( 3d)     0.00004       2.85020
   204    O   13  dyz    Ryd( 3d)     0.00159       3.08687
   205    O   13  dx2y2  Ryd( 3d)     0.00145       3.51855
   206    O   13  dz2    Ryd( 3d)     0.00042       3.08523

   207    C   14  S      Cor( 1S)     1.99926     -10.03149
   208    C   14  S      Val( 2S)     1.10786      -0.26587
   209    C   14  S      Ryd( 3S)     0.00045       0.55143
   210    C   14  S      Ryd( 4S)     0.00028       1.00603
   211    C   14  S      Ryd( 5S)     0.00000      23.32608
   212    C   14  px     Val( 2p)     1.15543      -0.11240
   213    C   14  px     Ryd( 4p)     0.00140       0.61738
   214    C   14  px     Ryd( 3p)     0.00031       0.32747
   215    C   14  px     Ryd( 5p)     0.00009       2.94624
   216    C   14  py     Val( 2p)     1.17321      -0.10949
   217    C   14  py     Ryd( 4p)     0.00165       0.57190
   218    C   14  py     Ryd( 3p)     0.00013       0.35438
   219    C   14  py     Ryd( 5p)     0.00003       2.92942
   220    C   14  pz     Val( 2p)     1.21223      -0.10913
   221    C   14  pz     Ryd( 4p)     0.00013       0.53821
   222    C   14  pz     Ryd( 3p)     0.00002       0.31030
   223    C   14  pz     Ryd( 5p)     0.00005       2.95725
   224    C   14  dxy    Ryd( 3d)     0.00088       2.28835
   225    C   14  dxz    Ryd( 3d)     0.00014       1.75715
   226    C   14  dyz    Ryd( 3d)     0.00094       2.24753
   227    C   14  dx2y2  Ryd( 3d)     0.00042       2.01500
   228    C   14  dz2    Ryd( 3d)     0.00065       2.15261

   229    H   15  S      Val( 1S)     0.78109       0.02614
   230    H   15  S      Ryd( 2S)     0.00096       0.63172
   231    H   15  S      Ryd( 3S)     0.00009       2.10522
   232    H   15  px     Ryd( 2p)     0.00014       1.72177
   233    H   15  py     Ryd( 2p)     0.00019       2.09435
   234    H   15  pz     Ryd( 2p)     0.00024       2.41207

   235    H   16  S      Val( 1S)     0.78109       0.02614
   236    H   16  S      Ryd( 2S)     0.00096       0.63172
   237    H   16  S      Ryd( 3S)     0.00009       2.10523
   238    H   16  px     Ryd( 2p)     0.00014       1.72177
   239    H   16  py     Ryd( 2p)     0.00019       2.09440
   240    H   16  pz     Ryd( 2p)     0.00024       2.41202

   241    H   17  S      Val( 1S)     0.77314       0.04458
   242    H   17  S      Ryd( 2S)     0.00139       0.82090
   243    H   17  S      Ryd( 3S)     0.00011       1.89616
   244    H   17  px     Ryd( 2p)     0.00020       2.49169
   245    H   17  py     Ryd( 2p)     0.00019       1.99773
   246    H   17  pz     Ryd( 2p)     0.00006       1.74695

 WARNING:  1 low occupancy (<1.9990e) core orbital  found on  C    4

 WARNING:  Population inversion found on atom  C    1
           Population inversion found on atom  C    2
           Population inversion found on atom  C    3
           Population inversion found on atom  C    4
           Population inversion found on atom  C    8
           Population inversion found on atom  C   12
           Population inversion found on atom  O   13
           Population inversion found on atom  C   14


 Summary of Natural Population Analysis:                  
                                                          
                                       Natural Population 
                Natural  -----------------------------------------------
    Atom  No    Charge         Core      Valence    Rydberg      Total
 -----------------------------------------------------------------------
      C    1    0.34625      1.99905     3.63044    0.02426     5.65375
      C    2   -0.31814      1.99903     4.30342    0.01569     6.31814
      C    3   -0.25015      1.99907     4.23643    0.01465     6.25015
      C    4    0.18897      1.99890     3.78532    0.02681     5.81103
      O    5   -0.46647      1.99973     6.45070    0.01604     8.46647
      H    6    0.22870      0.00000     0.76985    0.00145     0.77130
      H    7    0.22846      0.00000     0.77004    0.00150     0.77154
      C    8   -0.60413      1.99926     4.59667    0.00820     6.60413
      H    9    0.22210      0.00000     0.77636    0.00155     0.77790
      H   10    0.22210      0.00000     0.77636    0.00155     0.77790
      H   11    0.21438      0.00000     0.78456    0.00106     0.78562
      C   12    0.52613      1.99937     3.43540    0.03910     5.47387
      O   13   -0.54209      1.99976     6.52856    0.01378     8.54209
      C   14   -0.65558      1.99926     4.64872    0.00759     6.65558
      H   15    0.21729      0.00000     0.78109    0.00162     0.78271
      H   16    0.21729      0.00000     0.78109    0.00162     0.78271
      H   17    0.22492      0.00000     0.77314    0.00194     0.77508
 =======================================================================
   * Total *    0.00000     17.99344    47.82815    0.17841    66.00000

                                 Natural Population      
 --------------------------------------------------------
   Core                      17.99344 ( 99.9635% of  18)
   Valence                   47.82815 ( 99.6420% of  48)
   Natural Minimal Basis     65.82159 ( 99.7297% of  66)
   Natural Rydberg Basis      0.17841 (  0.2703% of  66)
 --------------------------------------------------------

    Atom  No          Natural Electron Configuration
 ----------------------------------------------------------------------------
      C    1      [core]2S( 0.89)2p( 2.74)3d( 0.01)4p( 0.01)
      C    2      [core]2S( 0.97)2p( 3.33)4p( 0.01)
      C    3      [core]2S( 0.97)2p( 3.26)4p( 0.01)
      C    4      [core]2S( 0.90)2p( 2.88)3d( 0.01)4p( 0.02)
      O    5      [core]2S( 1.62)2p( 4.83)3p( 0.01)
      H    6            1S( 0.77)
      H    7            1S( 0.77)
      C    8      [core]2S( 1.09)2p( 3.51)
      H    9            1S( 0.78)
      H   10            1S( 0.78)
      H   11            1S( 0.78)
      C   12      [core]2S( 0.87)2p( 2.56)3S( 0.01)3d( 0.01)4p( 0.02)
      O   13      [core]2S( 1.70)2p( 4.82)3p( 0.01)
      C   14      [core]2S( 1.11)2p( 3.54)
      H   15            1S( 0.78)
      H   16            1S( 0.78)
      H   17            1S( 0.77)


 NBO analysis skipped by request.
 Calling FoFJK, ICntrl=      2127 FMM=F ISym2X=0 I1Cent= 0 IOpClX= 0 NMat=1 NMatS=1 NMatT=0.
 ***** Axes restored to original set *****
 -------------------------------------------------------------------
 Center     Atomic                   Forces (Hartrees/Bohr)
 Number     Number              X              Y              Z
 -------------------------------------------------------------------
      1        6           0.000681400    0.015431977   -0.000225109
      2        6           0.008796397    0.011600043   -0.000212624
      3        6          -0.009343334    0.010364443   -0.000049390
      4        6           0.011385032    0.022631754   -0.000404700
      5        8          -0.006325089   -0.033850479    0.000510472
      6        1           0.000760938    0.005697571   -0.000078569
      7        1          -0.001150523    0.005377743   -0.000053519
      8        6           0.035850224   -0.024203506   -0.000025707
      9        1          -0.001472232    0.009537232    0.011595426
     10        1          -0.001690616    0.009240096   -0.011805201
     11        1          -0.010485439   -0.009279204    0.000215573
     12        6          -0.011361818    0.000003124    0.000108827
     13        8          -0.004732400   -0.026999592    0.000381166
     14        6          -0.021323289    0.017196237   -0.000021454
     15        1           0.000501745   -0.010739674    0.011964462
     16        1           0.000284385   -0.011037800   -0.011697478
     17        1           0.009624618    0.009030036   -0.000202174
 -------------------------------------------------------------------
 Cartesian Forces:  Max     0.035850224 RMS     0.012030844

 GradGradGradGradGradGradGradGradGradGradGradGradGradGradGradGradGradGrad
 Berny optimization.
 FormGI is forming the generalized inverse of G from B-inverse, IUseBI=4.
 Internal  Forces:  Max     0.034606391 RMS     0.008952858
 Search for a local minimum.
 Step number   1 out of a maximum of   87
 All quantities printed in internal units (Hartrees-Bohrs-Radians)
 Mixed Optimization -- RFO/linear search
 Second derivative matrix not updated -- first step.
 ITU=  0
     Eigenvalues ---    0.00237   0.00237   0.00237   0.00237   0.01176
     Eigenvalues ---    0.01360   0.01836   0.01843   0.02052   0.02136
     Eigenvalues ---    0.07243   0.07243   0.07243   0.07243   0.16000
     Eigenvalues ---    0.16000   0.16000   0.16000   0.16000   0.16000
     Eigenvalues ---    0.16000   0.16000   0.22864   0.24722   0.25000
     Eigenvalues ---    0.25000   0.25000   0.25000   0.28519   0.28519
     Eigenvalues ---    0.28519   0.35304   0.35309   0.36823   0.37230
     Eigenvalues ---    0.37230   0.37230   0.37230   0.37230   0.37230
     Eigenvalues ---    0.42525   0.44301   0.47425   0.49001   0.92213
 RFO step:  Lambda=-1.58481262D-02 EMin= 2.36824134D-03
 Linear search not attempted -- first point.
 Iteration  1 RMS(Cart)=  0.05077650 RMS(Int)=  0.00028551
 Iteration  2 RMS(Cart)=  0.00062048 RMS(Int)=  0.00001739
 Iteration  3 RMS(Cart)=  0.00000021 RMS(Int)=  0.00001739
 Variable       Old X    -DE/DX   Delta X   Delta X   Delta X     New X
                                 (Linear)    (Quad)   (Total)
    R1        2.60703  -0.01811   0.00000  -0.03587  -0.03587   2.57116
    R2        2.63721  -0.02469   0.00000  -0.05259  -0.05256   2.58465
    R3        2.91018  -0.02652   0.00000  -0.08808  -0.08808   2.82209
    R4        2.73638  -0.01509   0.00000  -0.03647  -0.03650   2.69988
    R5        2.05185  -0.00510   0.00000  -0.01384  -0.01384   2.03801
    R6        2.60724  -0.01645   0.00000  -0.03170  -0.03171   2.57553
    R7        2.05176  -0.00502   0.00000  -0.01360  -0.01360   2.03816
    R8        2.63671  -0.01826   0.00000  -0.03854  -0.03852   2.59819
    R9        2.91018  -0.03461   0.00000  -0.11496  -0.11496   2.79522
   R10        2.02201   0.01505   0.00000   0.03876   0.03876   2.06077
   R11        2.02201   0.01505   0.00000   0.03876   0.03876   2.06077
   R12        2.02201   0.01400   0.00000   0.03608   0.03608   2.05808
   R13        2.31929  -0.02720   0.00000  -0.02900  -0.02900   2.29030
   R14        2.91018  -0.01149   0.00000  -0.03818  -0.03818   2.87200
   R15        2.02201   0.01595   0.00000   0.04109   0.04109   2.06310
   R16        2.02201   0.01595   0.00000   0.04109   0.04109   2.06310
   R17        2.02201   0.01308   0.00000   0.03370   0.03370   2.05571
    A1        1.92135  -0.00080   0.00000  -0.00493  -0.00491   1.91644
    A2        2.36430  -0.00347   0.00000  -0.01211  -0.01212   2.35218
    A3        1.99754   0.00428   0.00000   0.01704   0.01703   2.01457
    A4        1.86128  -0.00033   0.00000   0.00033   0.00029   1.86157
    A5        2.22940  -0.00255   0.00000  -0.01560  -0.01558   2.21382
    A6        2.19251   0.00288   0.00000   0.01526   0.01529   2.20779
    A7        1.86031  -0.00040   0.00000   0.00191   0.00186   1.86217
    A8        2.19290   0.00251   0.00000   0.01219   0.01222   2.20512
    A9        2.22997  -0.00211   0.00000  -0.01410  -0.01407   2.21590
   A10        1.92202  -0.00332   0.00000  -0.01181  -0.01181   1.91021
   A11        2.36380  -0.00523   0.00000  -0.02002  -0.02002   2.34378
   A12        1.99737   0.00855   0.00000   0.03183   0.03183   2.02920
   A13        1.85983   0.00485   0.00000   0.01450   0.01457   1.87440
   A14        1.91063   0.00093   0.00000   0.00489   0.00488   1.91552
   A15        1.91063   0.00094   0.00000   0.00489   0.00489   1.91552
   A16        1.91063   0.00008   0.00000   0.00130   0.00130   1.91193
   A17        1.91063  -0.00131   0.00000  -0.00916  -0.00916   1.90147
   A18        1.91063  -0.00032   0.00000  -0.00096  -0.00097   1.90966
   A19        1.91063  -0.00032   0.00000  -0.00097  -0.00097   1.90966
   A20        2.13323  -0.00421   0.00000  -0.01585  -0.01585   2.11738
   A21        2.01673   0.00048   0.00000   0.00180   0.00180   2.01853
   A22        2.13323   0.00373   0.00000   0.01404   0.01404   2.14727
   A23        1.91063   0.00187   0.00000   0.01009   0.01009   1.92073
   A24        1.91063   0.00187   0.00000   0.01009   0.01010   1.92073
   A25        1.91063  -0.00283   0.00000  -0.01503  -0.01499   1.89564
   A26        1.91063  -0.00234   0.00000  -0.01545  -0.01547   1.89516
   A27        1.91063   0.00072   0.00000   0.00515   0.00519   1.91582
   A28        1.91063   0.00072   0.00000   0.00515   0.00519   1.91582
    D1        0.00017  -0.00001   0.00000  -0.00019  -0.00019  -0.00002
    D2       -3.14155   0.00000   0.00000  -0.00010  -0.00010   3.14154
    D3        3.14158   0.00000   0.00000  -0.00005  -0.00005   3.14153
    D4       -0.00014   0.00000   0.00000   0.00005   0.00004  -0.00009
    D5       -0.00020   0.00001   0.00000   0.00024   0.00024   0.00003
    D6        3.14153   0.00001   0.00000   0.00013   0.00013  -3.14153
    D7        2.09465   0.00023   0.00000   0.00253   0.00253   2.09718
    D8       -2.09414  -0.00023   0.00000  -0.00269  -0.00270  -2.09683
    D9        0.00026   0.00000   0.00000  -0.00008  -0.00008   0.00018
   D10       -1.04713   0.00023   0.00000   0.00268   0.00268  -1.04445
   D11        1.04727  -0.00023   0.00000  -0.00254  -0.00255   1.04472
   D12       -3.14152   0.00000   0.00000   0.00007   0.00007  -3.14146
   D13       -0.00007   0.00000   0.00000   0.00007   0.00007   0.00001
   D14       -3.14159   0.00000   0.00000   0.00004   0.00004  -3.14155
   D15       -3.14154   0.00000   0.00000  -0.00002  -0.00002  -3.14156
   D16        0.00012   0.00000   0.00000  -0.00005  -0.00005   0.00007
   D17       -0.00006   0.00000   0.00000   0.00007   0.00007   0.00002
   D18       -3.14157   0.00000   0.00000  -0.00003  -0.00002   3.14159
   D19        3.14146   0.00000   0.00000   0.00011   0.00011   3.14157
   D20       -0.00005   0.00000   0.00000   0.00001   0.00001  -0.00004
   D21        0.00016  -0.00001   0.00000  -0.00019  -0.00019  -0.00003
   D22       -3.14149   0.00000   0.00000  -0.00012  -0.00011   3.14158
   D23        3.14159   0.00000   0.00000   0.00000   0.00001  -3.14159
   D24       -0.00004   0.00000   0.00000   0.00006   0.00006   0.00002
   D25        0.00008   0.00000   0.00000  -0.00010  -0.00010  -0.00002
   D26       -3.14155   0.00000   0.00000  -0.00004  -0.00004  -3.14159
   D27       -1.04719   0.00029   0.00000   0.00326   0.00323  -1.04396
   D28        1.04721  -0.00029   0.00000  -0.00331  -0.00329   1.04392
   D29       -3.14158   0.00000   0.00000  -0.00003  -0.00003   3.14158
   D30        2.09437   0.00029   0.00000   0.00331   0.00329   2.09765
   D31       -2.09442  -0.00029   0.00000  -0.00326  -0.00323  -2.09765
   D32       -0.00003   0.00000   0.00000   0.00003   0.00003   0.00000
         Item               Value     Threshold  Converged?
 Maximum Force            0.034606     0.000450     NO 
 RMS     Force            0.008953     0.000300     NO 
 Maximum Displacement     0.128132     0.001800     NO 
 RMS     Displacement     0.050931     0.001200     NO 
 Predicted change in Energy=-8.279005D-03
 GradGradGradGradGradGradGradGradGradGradGradGradGradGradGradGradGradGrad

                          Input orientation:                          
 ---------------------------------------------------------------------
 Center     Atomic      Atomic             Coordinates (Angstroms)
 Number     Number       Type             X           Y           Z
 ---------------------------------------------------------------------
      1          6           0       -1.432341    0.378285    0.018646
      2          6           0       -1.018907   -0.917920    0.031110
      3          6           0        0.409514   -0.892393    0.017599
      4          6           0        0.777474    0.419756   -0.002273
      5          8           0       -0.347207    1.210611   -0.001797
      6          1           0       -1.644643   -1.796139    0.047944
      7          1           0        1.064190   -1.749507    0.022283
      8          6           0       -2.761963    1.058210    0.022315
      9          1           0       -2.847203    1.696187    0.902620
     10          1           0       -2.863631    1.673652   -0.872175
     11          1           0       -3.553558    0.310405    0.039137
     12          6           0        2.075794    1.128182   -0.023150
     13          8           0        2.132714    2.338715   -0.038870
     14          6           0        3.309609    0.240778   -0.023424
     15          1           0        3.320597   -0.385236    0.870942
     16          1           0        3.304204   -0.407488   -0.901846
     17          1           0        4.193361    0.874898   -0.039555
 ---------------------------------------------------------------------
                    Distance matrix (angstroms):
                    1          2          3          4          5
     1  C    0.000000
     2  C    1.360599   0.000000
     3  C    2.237644   1.428713   0.000000
     4  C    2.210303   2.239973   1.362911   0.000000
     5  O    1.367736   2.232243   2.235091   1.374904   0.000000
     6  H    2.184960   1.078470   2.244379   3.283195   3.275113
     7  H    3.280271   2.242969   1.078549   2.188267   3.279470
     8  C    1.493388   2.635035   3.723324   3.596643   2.419680
     9  H    2.126056   3.306925   4.253259   3.947960   2.702542
    10  H    2.126060   3.306838   4.253206   3.947991   2.702656
    11  H    2.122401   2.816611   4.141633   4.332610   3.330575
    12  C    3.587632   3.710344   2.619327   1.479167   2.424497
    13  O    4.068933   4.532470   3.662331   2.349557   2.724702
    14  C    4.744130   4.481251   3.113890   2.538540   3.783299
    15  H    4.888741   4.452007   3.075680   2.806775   4.094043
    16  H    4.888722   4.451993   3.075670   2.806765   4.094037
    17  H    5.647879   5.512434   4.176612   3.446277   4.553119
                    6          7          8          9         10
     6  H    0.000000
     7  H    2.709356   0.000000
     8  C    3.065350   4.745811   0.000000
     9  H    3.791170   5.286474   1.090512   0.000000
    10  H    3.791043   5.286384   1.090513   1.775014   0.000000
    11  H    2.842809   5.056394   1.089090   1.779026   1.779026
    12  C    4.732690   3.050656   4.838477   5.041386   5.041458
    13  O    5.601159   4.225996   5.059773   5.108700   5.108832
    14  C    5.357120   3.000872   6.126522   6.393912   6.393934
    15  H    5.227005   2.769987   6.308822   6.509614   6.747010
    16  H    5.227001   2.769963   6.308782   6.746952   6.509548
    17  H    6.420622   4.084488   6.958015   7.150647   7.150692
                   11         12         13         14         15
    11  H    0.000000
    12  C    5.688782   0.000000
    13  O    6.037699   1.211973   0.000000
    14  C    6.863805   1.519798   2.405547   0.000000
    15  H    6.959153   2.153919   3.107850   1.091744   0.000000
    16  H    6.959147   2.153922   3.107853   1.091744   1.773004
    17  H    7.767857   2.132724   2.527652   1.087836   1.782880
                   16         17
    16  H    0.000000
    17  H    1.782880   0.000000
 Stoichiometry    C7H8O2
 Framework group  C1[X(C7H8O2)]
 Deg. of freedom    45
 Full point group                 C1      NOp   1
 Largest Abelian subgroup         C1      NOp   1
 Largest concise Abelian subgroup C1      NOp   1
                         Standard orientation:                         
 ---------------------------------------------------------------------
 Center     Atomic      Atomic             Coordinates (Angstroms)
 Number     Number       Type             X           Y           Z
 ---------------------------------------------------------------------
      1          6           0        1.796566    0.011880    0.000017
      2          6           0        1.509298    1.341807    0.000017
      3          6           0        0.084933    1.453186    0.000006
      4          6           0       -0.407164    0.182215    0.000007
      5          8           0        0.636568   -0.712762    0.000038
      6          1           0        2.216390    2.156127    0.000050
      7          1           0       -0.484581    2.369112   -0.000034
      8          6           0        3.054941   -0.792296   -0.000042
      9          1           0        3.087840   -1.425239    0.887380
     10          1           0        3.087917   -1.424999   -0.887634
     11          1           0        3.914634   -0.123681    0.000085
     12          6           0       -1.767497   -0.398671    0.000005
     13          8           0       -1.940227   -1.598272    0.000011
     14          6           0       -2.910609    0.602868   -0.000031
     15          1           0       -2.852316    1.237397    0.886467
     16          1           0       -2.852280    1.237383   -0.886536
     17          1           0       -3.851138    0.056250   -0.000045
 ---------------------------------------------------------------------
 Rotational constants (GHZ):      3.8809279      1.0967480      0.8643753
 Standard basis: 6-311+G(d,p) (5D, 7F)
 There are   255 symmetry adapted cartesian basis functions of A   symmetry.
 There are   246 symmetry adapted basis functions of A   symmetry.
   246 basis functions,   388 primitive gaussians,   255 cartesian basis functions
    33 alpha electrons       33 beta electrons
       nuclear repulsion energy       425.4634594771 Hartrees.
 NAtoms=   17 NActive=   17 NUniq=   17 SFac= 1.00D+00 NAtFMM=   60 NAOKFM=F Big=F
 Integral buffers will be    131072 words long.
 Raffenetti 2 integral format.
 Two-electron integral symmetry is turned on.
 One-electron integrals computed using PRISM.
 NBasis=   246 RedAO= T EigKep=  1.44D-06  NBF=   246
 NBsUse=   246 1.00D-06 EigRej= -1.00D+00 NBFU=   246
 Initial guess from the checkpoint file:  "regiodevergent1b_Ishiyana.chk"
 B after Tr=     0.000000    0.000000    0.000000
         Rot=    0.999997    0.000001    0.000000   -0.002305 Ang=   0.26 deg.
 ExpMin= 4.38D-02 ExpMax= 8.59D+03 ExpMxC= 1.30D+03 IAcc=2 IRadAn=         4 AccDes= 0.00D+00
 Harris functional with IExCor=  402 and IRadAn=       4 diagonalized for initial guess.
 HarFok:  IExCor=  402 AccDes= 0.00D+00 IRadAn=         4 IDoV= 1 UseB2=F ITyADJ=14
 ICtDFT=  3500011 ScaDFX=  1.000000  1.000000  1.000000  1.000000
 FoFCou: FMM=F IPFlag=           0 FMFlag=      100000 FMFlg1=           0
         NFxFlg=           0 DoJE=T BraDBF=F KetDBF=T FulRan=T
[...]
 ! D28   D(4,12,14,16)          59.808          -DE/DX =    0.0                 !
 ! D29   D(4,12,14,17)        -179.9991         -DE/DX =    0.0                 !
 ! D30   D(13,12,14,15)        120.1939         -DE/DX =    0.0                 !
 ! D31   D(13,12,14,16)       -120.1916         -DE/DX =    0.0                 !
 ! D32   D(13,12,14,17)          0.0012         -DE/DX =    0.0                 !
 --------------------------------------------------------------------------------
 GradGradGradGradGradGradGradGradGradGradGradGradGradGradGradGradGradGrad

 1\1\GINC-COREV3-23-045\Freq\RB3LYP\6-311+G(d,p)\C7H8O2\ROOT\02-Feb-202
 3\0\\#N Geom=AllCheck Guess=TCheck SCRF=Check GenChk RB3LYP/6-311+G(d,
 p) Freq\\Title Card Required\\0,1\C,-1.4251672507,0.3996193941,0.01828
 87232\C,-1.0113739265,-0.9055823057,0.0308004292\C,0.410876178,-0.8751
 645106,0.0172438572\C,0.7776056758,0.4464874683,-0.0027286133\O,-0.350
 7469277,1.2245701082,-0.0020865334\H,-1.6495533401,-1.7748826129,0.047
 620412\H,1.0793311696,-1.7216535558,0.0216769793\C,-2.7647851009,1.041
 9123731,0.0226529931\H,-2.8867338718,1.686061498,0.8983603107\H,-2.903
 1185349,1.6638825087,-0.8665491776\H,-3.5449654446,0.2802687851,0.0394
 660232\C,2.07880746,1.1245106985,-0.0232728212\O,2.1703244526,2.338395
 5127,-0.0395609954\C,3.3060674977,0.2285323018,-0.0231144805\H,3.32626
 55417,-0.4052857974,0.8680829991\H,3.3101015167,-0.427735761,-0.898135
 4164\H,4.1950701551,0.8570587549,-0.039237819\\Version=ES64L-G09RevD.0
 1\State=1-A\HF=-422.1153319\RMSD=3.336e-09\RMSF=7.917e-06\ZeroPoint=0.
 1340895\Thermal=0.1431637\Dipole=-0.7449932,-1.5086865,0.0260595\Dipol
 eDeriv=0.3854162,-0.1081431,-0.0022726,-0.4580128,0.4312106,-0.0012195
 ,0.0021594,-0.0044846,-0.0041027,-0.4383915,0.0315902,0.0017951,0.4199
 76,-0.051147,-0.0057763,-0.0030659,-0.0021781,-0.2016542,0.4562569,0.0
 913505,-0.006569,0.2402745,0.0449641,-0.0044109,-0.0084806,-0.0030519,
 -0.1289167,-0.7951798,-0.4586942,0.0132119,-0.6573993,0.0054975,0.0061
 633,0.015632,0.0042734,0.0095736,-0.3629498,0.0947099,0.0013236,0.0379
 799,-0.6896724,0.0071602,0.0020871,0.0066888,-0.0908913,0.0164337,-0.0
 796697,0.0024128,-0.0658932,0.0372218,0.0022593,0.0022487,0.0023901,0.
 168639,0.0337492,0.0800605,0.0000913,0.0729904,0.0594553,0.0004864,0.0
 001802,0.000424,0.1519588,0.0068044,0.0189456,0.0007958,0.1749228,0.05
 31099,-0.0008042,-0.0011977,0.0006458,0.1182614,-0.0213302,0.0199484,-
 0.0133364,0.0579334,0.0232514,-0.0712849,0.0426538,-0.0902607,-0.02335
 27,-0.0219032,0.0219378,0.0127456,0.0581488,0.0272634,0.0689402,-0.044
 1756,0.0886051,-0.0267962,-0.0285493,-0.0342081,0.0015255,-0.1062688,-
 0.0272829,0.0024539,0.0024294,0.0017843,0.0894154,1.8134819,0.3236736,
 -0.0194255,0.5675319,1.3819686,-0.0209902,-0.0224709,-0.0187095,0.1436
 562,-0.7600393,-0.1230997,0.0055219,-0.5195628,-1.254688,0.016562,0.01
 05219,0.0128975,-0.328748,-0.3082429,0.1784166,0.0013092,0.2481677,-0.
 1098424,0.0001657,0.0004256,0.0008044,0.0819104,0.0378516,-0.0091374,0
 .0405653,0.0097326,0.0240775,0.070248,0.0021127,0.0860504,-0.0281586,0
 .0370582,-0.0117676,-0.0414615,0.0083667,0.020072,-0.0716327,-0.003500
 9,-0.087075,-0.0233502,-0.0504661,-0.0359135,0.0017669,-0.0888877,0.02
 45406,0.0016797,0.0024407,0.0011961,0.0925558\Polar=122.1461835,6.2633
 841,94.3168807,-0.6880311,-0.5374497,56.2742325\PG=C01 [X(C7H8O2)]\NIm
 ag=0\\0.67403274,-0.13234034,0.67941296,-0.00301023,-0.00515361,0.1709
 1970,-0.12995600,0.06595688,-0.00023064,0.62691946,0.09306116,-0.35755
 732,0.00279288,0.11798408,0.80200282,-0.00057158,0.00304269,-0.0658326
 2,-0.00623117,-0.00971318,0.11475521,-0.02735360,0.08264853,-0.0007049
 0,-0.28062036,-0.02439260,0.00237771,0.63217902,0.02221061,0.00371543,
 -0.00014334,0.01097355,-0.11273410,0.00059693,-0.12085976,0.79197943,0
 .00005523,-0.00070578,0.00865541,0.00193153,0.00092551,-0.05708396,-0.
 00319493,-0.00727213,0.12326139,-0.11223255,-0.03794789,0.00165172,-0.
 04655088,-0.00535373,0.00060351,-0.09848478,-0.06408886,0.00114878,0.6
 3481873,0.00403771,-0.00517335,0.00020938,-0.07192019,-0.00277146,0.00
 084303,-0.06509057,-0.36423014,0.00440501,0.10844039,0.69148979,0.0011
 2557,0.00059696,0.01453755,0.00143871,0.00022587,0.01123213,0.00116221
 ,0.00439914,-0.06099903,-0.00606314,-0.00810861,0.12660783,-0.18200001
 ,-0.08338579,0.00209624,-0.00901012,-0.05658815,0.00092712,-0.03662049
 ,0.04150078,-0.00007232,-0.14974342,0.09403218,-0.00040162,0.46146673,
 -0.05791063,-0.17099118,0.00181890,-0.00630363,-0.07839698,0.00122414,
 0.00980036,-0.07675692,0.00102316,0.05007347,-0.15550159,0.00066908,0.
 01086065,0.46117891,0.00177664,0.00205780,-0.06918126,0.00029333,0.001
 68752,0.01426230,0.00032706,0.00072756,0.01179715,0.00015177,0.0002625
 5,-0.06560384,-0.00354304,-0.00471849,0.09421679,0.00941133,0.00865206
 ,-0.00021295,-0.16000546,-0.14265807,0.00301323,-0.00626292,-0.0234389
 8,0.00034044,-0.00657291,0.00094456,0.00008815,0.00164899,0.00455458,0
 .00000498,0.16007905,-0.01933736,-0.00988030,0.00028080,-0.13988675,-0
 .25104831,0.00409293,0.00426965,0.00750028,-0.00014951,0.00331918,-0.0
 0107362,0.00003610,-0.00076668,-0.00482842,0.00017227,0.15313612,0.258
 36553,0.00013804,0.00002057,-0.00183442,0.00297886,0.00411919,-0.02814
 718,-0.00000773,0.00010693,-0.00127227,0.00005875,0.00005827,0.0042452
 7,0.00007206,0.00012355,0.00835432,-0.00319945,-0.00438170,0.02228489,
 -0.00616089,-0.00047850,0.00009758,-0.00586071,0.02262175,-0.00022242,
 -0.17021536,0.14513108,-0.00053330,0.00965749,-0.00684956,-0.00001326,
 0.00144515,-0.00464707,0.00012028,0.00079088,-0.00068848,-0.00001583,0
 .17163847,-0.00341451,-0.00125754,0.00009429,-0.00460211,0.00822487,-0
 .00005077,0.14285107,-0.24141598,0.00131648,0.01960687,-0.00883720,-0.
 00008392,0.00120767,-0.00491279,0.00015237,0.00069723,-0.00017675,-0.0
 0002747,-0.15651031,0.24724895,0.00013446,0.00006733,0.00372669,0.0001
 1998,-0.00030295,0.00078827,-0.00050557,0.00129487,-0.03109867,-0.0003
 4471,0.00016106,-0.00107523,0.00004645,0.00020669,0.00812939,-0.000033
 26,-0.00001462,-0.00185141,0.00058719,-0.00136589,0.02293276,-0.201710
 90,0.06238369,0.00047759,-0.00290164,0.00398075,0.00003679,0.00152357,
 0.00025610,0.00004433,0.00183975,-0.00502593,0.00006857,-0.03862278,0.
 00822872,0.00023328,0.00034218,-0.00057483,-0.00002583,0.00032556,0.00
 016650,-0.00000021,0.52314436,0.07033284,-0.12014520,0.00002730,0.0246
 2395,-0.00275366,-0.00011207,-0.00002248,-0.00415078,0.00013573,0.0017
 2315,-0.00553404,0.00008452,-0.03117704,0.01459352,0.00007591,-0.00036
 219,0.00042638,-0.00004250,0.00111911,0.00050931,-0.00001022,0.0371054
 7,0.55690692,0.00037555,0.00010245,-0.06594571,-0.00022063,0.00007831,
 0.00648522,0.00004748,0.00013249,0.00664537,-0.00001837,0.00014688,0.0
 0238545,0.00073032,-0.00028961,-0.00234567,-0.00002856,-0.00004034,-0.
 00322116,-0.00001213,-0.00000137,0.00052268,-0.00038138,-0.00065208,0.
 53237266,-0.00607708,0.02118024,0.02564989,-0.00161776,-0.00074350,-0.
 00021369,-0.00078020,-0.00004631,-0.00080042,-0.00285451,0.00141485,-0
 .00046851,0.00397492,-0.00088951,-0.00037017,0.00004483,0.00006869,0.0
 0018996,-0.00023792,-0.00009109,-0.00014088,-0.04903970,0.01412388,0.0
 2154753,0.05256583,0.00450614,-0.01295529,-0.01027060,0.00152878,0.001
 23180,-0.00030396,0.00032282,-0.00024960,0.00098973,0.00061612,-0.0002
 6839,0.00019616,-0.00131699,0.00073279,0.00022193,-0.00010053,0.000119
 47,-0.00047550,0.00017217,0.00005212,0.00003138,0.01360675,-0.13279793
 ,-0.12357763,-0.02033800,0.14485332,0.00183112,0.00074460,0.00312430,-
 0.00080265,0.00082611,-0.00038300,0.00002321,0.00041283,-0.00024085,0.
 00091577,-0.00024682,-0.00010589,-0.00025751,0.00005890,0.00060780,-0.
 00001513,0.00001031,0.00016586,-0.00003159,0.00003556,0.00002549,0.020
 62477,-0.12339047,-0.21353837,-0.02299820,0.13554190,0.23066640,-0.006
 59025,0.02051768,-0.02599538,-0.00159810,-0.00075341,0.00025522,-0.000
 76582,-0.00003405,0.00081142,-0.00286286,0.00143148,0.00048339,0.00398
 629,-0.00088179,0.00033018,0.00004163,0.00006374,-0.00018945,-0.000234
 62,-0.00008811,0.00014794,-0.04988644,0.01580745,-0.02501993,-0.000056
 41,-0.00216020,0.00208321,0.05349120,0.00465464,-0.01271173,0.01058994
 ,0.00155350,0.00121758,0.00023494,0.00030396,-0.00028472,-0.00099467,0
 .00059013,-0.00026754,-0.00020326,-0.00131506,0.00072617,-0.00020050,-
 0.00009122,0.00013113,0.00047823,0.00017233,0.00005039,-0.00003523,0.0
 1531714,-0.12665135,0.12113512,-0.00250260,0.01167501,-0.01578849,-0.0
 2220294,0.13810707,-0.00176805,-0.00072736,0.00339361,0.00078661,-0.00
 085266,-0.00038782,-0.00002104,-0.00041113,-0.00022014,-0.00087971,0.0
 0022457,-0.00009900,0.00022813,-0.00004556,0.00060347,0.00001973,-0.00
 001065,0.00015734,0.00003209,-0.00003456,0.00002393,-0.02408445,0.1209
 3863,-0.21883780,-0.00242912,0.01498926,-0.02183818,0.02688541,-0.1328
 3123,0.23648658,-0.01863585,-0.02523905,0.00046384,0.00182569,0.000104
 48,-0.00001970,-0.00034959,-0.00007448,0.00000109,0.00006991,-0.001619
 69,0.00002498,-0.00653448,0.00407617,0.00001873,-0.00012186,0.00072385
 ,-0.00000446,0.00014106,0.00006590,-0.00000259,-0.18362426,-0.13082856
 ,0.00292677,0.00324694,0.00334498,-0.00111619,0.00363521,0.00369489,0.
 00098433,0.20075427,0.01027390,0.01169339,-0.00027806,-0.00005334,0.00
 005153,-0.00000216,-0.00028992,0.00021719,-0.00000416,0.00071556,0.000
 72150,-0.00000884,0.00434146,-0.00070431,-0.00001869,0.00006622,-0.000
 03040,0.00000451,-0.00004469,-0.00000457,-0.00000013,-0.13626524,-0.18
 106151,0.00296918,-0.01235706,-0.01245125,0.00183590,-0.01188671,-0.01
 205229,-0.00127512,0.14527667,0.19381915,0.00001734,0.00005163,-0.0028
 5003,-0.00001769,-0.00000358,-0.00015892,0.00000384,-0.00000615,-0.000
 32775,-0.00000455,0.00001292,0.00054865,0.00001569,-0.00001621,0.00102
 109,0.00000384,-0.00000165,0.00037837,-0.00000119,-0.00000116,-0.00004
 821,0.00299502,0.00291871,-0.04550330,-0.01972962,-0.01728657,0.001495
 27,0.01999088,0.01755688,0.00070810,-0.00327559,-0.00322427,0.04462665
 ,0.00748641,0.02125926,-0.00032451,0.01419458,-0.00651841,0.00001102,-
 0.00711521,-0.01549973,0.00023827,-0.19413584,-0.02695624,0.00152329,-
 0.05244381,-0.01150254,0.00058616,0.00145285,-0.00022060,0.00000325,0.
 00004073,0.00110813,-0.00004149,-0.00145043,-0.00251361,0.00006042,0.0
 0112708,-0.00034998,-0.00034069,0.00113968,-0.00034016,0.00032821,-0.0
 0018587,0.00024543,0.00000007,0.51683772,0.00916190,0.00395223,-0.0001
 1743,0.00654346,-0.01213636,0.00017476,-0.03259657,-0.01310726,0.00043
 356,-0.03011433,-0.09157400,0.00060350,0.01916090,0.01194083,-0.000385
 86,-0.00066182,0.00030652,0.00002151,0.00040838,-0.00013893,-0.0000390
 7,0.00068704,-0.00017516,0.00001612,0.00093002,-0.00005195,-0.00031382
 ,0.00094422,-0.00004228,0.00029745,0.00063771,-0.00029597,-0.00000030,
 0.02216225,0.89046287,-0.00017137,-0.00022874,0.00135113,-0.00015124,0
 .00029620,0.00665906,0.00044999,0.00027425,-0.00269539,0.00156060,0.00
 057165,-0.06578436,0.00020056,-0.00010104,-0.00454531,0.00000909,0.000
 01747,0.00153590,-0.00003255,-0.00004518,-0.00293613,0.00001934,0.0000
 4533,0.00157955,-0.00035519,-0.00007850,0.00000667,0.00031060,0.000085
 91,-0.00001545,-0.00000490,0.00000338,0.00015141,-0.00305318,-0.008795
 22,0.21502715,0.00055151,-0.00432534,0.00004799,-0.00374020,-0.0011959
 1,0.00003267,-0.00406537,0.00286732,0.00003585,-0.00364667,-0.05035485
 ,0.00085861,0.00684718,-0.00087938,-0.00006113,-0.00075203,-0.00003249
 ,0.00000102,0.00008094,-0.00044144,0.00000991,0.00030081,0.00035731,-0
 .00000714,-0.00019091,0.00012951,0.00005406,-0.00019155,0.00012728,-0.
 00005329,-0.00000604,-0.00008256,0.00000123,-0.10510789,-0.04117325,0.
 00086498,0.09851114,-0.00486641,-0.01036224,0.00017354,-0.00795349,0.0
 0517178,-0.00001440,0.00466227,0.01136305,-0.00013911,-0.04648428,-0.0
 6966121,0.00156630,0.00907189,0.00378197,-0.00014377,-0.00078620,0.000
 18618,-0.00000368,0.00037356,0.00017880,0.00000160,0.00030284,0.001246
 98,-0.00001847,-0.00079864,0.00011385,0.00025839,-0.00080292,0.0001063
 5,-0.00024567,-0.00006060,0.00004650,0.00000016,-0.02312609,-0.6783358
 6,0.00798011,0.05131983,0.78814361,0.00005474,0.00016888,-0.00014229,0
 .00011804,-0.00007676,-0.00182418,0.00001382,-0.00012342,0.00373355,0.
 00080863,0.00160297,0.02017848,-0.00018743,-0.00005261,-0.00102058,0.0
 0001059,-0.00001066,-0.00068537,-0.00000045,0.00000867,0.00054904,-0.0
 0000628,-0.00001865,0.00003024,-0.00000937,0.00004530,0.00001922,0.000
 03354,-0.00004986,0.00002735,0.00000097,0.00000037,0.00001534,0.000636
 56,0.00814581,-0.06804076,-0.00132006,-0.01017274,0.02586707,-0.000450
 06,0.00148717,-0.00001288,-0.00008288,0.00017484,-0.00001284,-0.001296
 41,-0.00029119,0.00001172,-0.02370620,0.01524553,0.00014023,-0.0038231
 4,-0.00322867,0.00010161,-0.00007368,-0.00006463,0.00000051,-0.0006648
 4,0.00007364,0.00001704,-0.00016834,-0.00030509,0.00000190,-0.00004980
 ,0.00003982,0.00002528,-0.00005182,0.00003922,-0.00002545,-0.00016030,
 0.00004367,0.00000047,-0.16586243,0.03576526,0.00029391,0.01148889,0.0
 1461487,-0.00007488,0.50736854,-0.00005044,0.00248828,-0.00002868,0.00
 112956,-0.00075961,-0.00001726,-0.00102338,-0.00241271,0.00003534,-0.0
 0150658,0.01602849,-0.00002682,-0.00750723,-0.00143097,0.00012297,0.00
 005482,-0.00001387,-0.00000172,-0.00020764,0.00015238,0.00001667,-0.00
 029957,-0.00056225,0.00000520,0.00009153,-0.00000939,-0.00000022,0.000
 08942,-0.00000939,-0.00000140,-0.00014220,0.00006604,-0.00000016,0.028
 63291,-0.09716457,-0.00009758,0.03633913,-0.04904212,0.00059220,0.0701
 8059,0.53916326,0.00000647,-0.00004256,0.00017489,-0.00002502,-0.00000
 796,-0.00125892,0.00002166,0.00002901,-0.00037759,0.00035312,-0.000180
 10,0.01272038,0.00015628,0.00008304,0.00284220,-0.00000098,-0.00000059
 ,-0.00010768,0.00002057,0.00001336,0.00129573,0.00000173,0.00000498,-0
 .00038570,0.00008482,-0.00000232,-0.00000753,-0.00008627,0.00000166,-0
 .00000551,0.00000277,-0.00000188,-0.00005186,0.00038266,-0.00016263,-0
 .08410613,-0.00035064,0.00079139,0.02363123,-0.00075333,-0.00085416,0.
 52255183,-0.00008347,-0.00044209,-0.00002455,-0.00051695,0.00016585,-0
 .00022104,-0.00010943,0.00058379,0.00009032,-0.00189550,-0.00114793,0.
 00178175,0.00059716,-0.00022219,0.00059467,-0.00000468,0.00000051,-0.0
 0002508,-0.00039743,-0.00028311,-0.00010231,-0.00000362,0.00007450,-0.
 00005466,-0.00001079,-0.00000316,-0.00000457,-0.00003042,-0.00000739,0
 .00000141,0.00000340,-0.00000203,-0.00001033,0.00505392,0.01328607,-0.
 02470865,-0.00289148,0.00265587,0.00304378,-0.04786408,0.00219887,-0.0
 0558490,0.04648187,-0.00016632,0.00007339,-0.00001637,0.00018072,-0.00
 000064,-0.00019901,-0.00027643,0.00046316,0.00005012,-0.00051511,-0.00
 008033,-0.00100509,0.00022312,-0.00007288,-0.00039807,0.00000044,0.000
 00746,0.00002052,-0.00028514,0.00000162,0.00006612,0.00002456,0.000019
 46,0.00011760,-0.00003323,0.00000397,0.00000413,0.00000370,-0.00000633
 ,-0.00000986,0.00000115,0.00000078,0.00000380,-0.00285362,-0.01248611,
 0.01560582,0.00438585,-0.00242779,-0.00258277,0.00103671,-0.12978419,0
 .12761916,-0.00299554,0.14129820,0.00005224,-0.00006776,-0.00001871,-0
 .00016482,-0.00016986,0.00027573,0.00028399,0.00050918,0.00020012,-0.0
 0037657,0.00073035,0.00013106,0.00006419,-0.00035019,0.00009254,0.0000
 0701,0.00000541,-0.00000159,-0.00002342,-0.00037623,-0.00031147,-0.000
 02821,-0.00003780,-0.00005552,0.00002522,-0.00001416,-0.00000109,0.000
 00810,-0.00000296,0.00000515,-0.00000638,0.00000217,0.00000125,0.00073
 860,-0.00134434,0.00163564,-0.00017523,-0.00103600,-0.00073256,-0.0034
 6142,0.12504774,-0.21819546,0.00280850,-0.13730919,0.23729710,-0.00008
 390,-0.00044032,0.00003682,-0.00050971,0.00017462,0.00023137,-0.000116
 58,0.00057193,-0.00009913,-0.00192013,-0.00120594,-0.00171524,0.000585
 33,-0.00023063,-0.00059794,-0.00000435,0.00000104,0.00002512,-0.000395
 31,-0.00027370,0.00011078,-0.00000210,0.00007654,0.00005170,-0.0000305
 7,-0.00000737,-0.00000056,-0.00001117,-0.00000278,0.00000483,0.0000037
 2,-0.00000181,0.00001034,0.00548979,0.01393481,0.02429547,-0.00294505,
 0.00259667,-0.00307109,-0.04775532,-0.00000575,0.00249752,-0.00053815,
 -0.00070477,-0.00034307,0.04644274,-0.00016731,0.00007559,0.00001719,0
 .00018873,0.00000882,0.00020247,-0.00028451,0.00044835,-0.00005123,-0.
 00048589,-0.00007265,0.00101950,0.00022858,-0.00005386,0.00039775,-0.0
 0000011,0.00000681,-0.00002075,-0.00028592,0.00000963,-0.00006925,0.00
 002305,0.00001737,-0.00011997,0.00000370,-0.00000600,0.00001008,-0.000
 03394,0.00000424,-0.00000363,0.00000124,0.00000063,-0.00000381,-0.0031
 5418,-0.01284210,-0.01518826,0.00443629,-0.00233602,0.00254365,-0.0012
 6921,-0.13626183,-0.12970257,-0.00040505,0.01266767,0.01573127,-0.0004
 8840,0.14833904,-0.00004682,0.00007347,-0.00002051,0.00017445,0.000173
 41,0.00025897,-0.00027113,-0.00052649,0.00022111,0.00042720,-0.0007033
 4,0.00014783,-0.00007919,0.00035825,0.00008573,-0.00000696,-0.00000564
 ,-0.00000125,0.00003205,0.00037345,-0.00032134,0.00002664,0.00003456,-
 0.00005490,-0.00000754,0.00000338,0.00000498,-0.00002418,0.00001408,-0
 .00000097,0.00000631,-0.00000213,0.00000109,-0.00072934,0.00145772,0.0
 0155649,0.00010271,0.00102949,-0.00077067,0.00040373,-0.12715339,-0.21
 182645,-0.00001780,-0.01657776,-0.02101839,0.00066469,0.13960459,0.230
 29490,-0.00014741,0.00051381,-0.00000564,0.00003103,-0.00006377,0.0000
 0378,0.00045349,0.00023818,-0.00000888,-0.00177962,0.00462421,-0.00003
 372,-0.00175353,-0.00089790,0.00003359,-0.00001384,-0.00001097,0.00000
 027,0.00004682,-0.00007261,-0.00000273,-0.00006604,-0.00013524,0.00000
 114,-0.00001393,0.00000914,0.00000968,-0.00001456,0.00000906,-0.000009
 66,-0.00006196,0.00002043,0.00000026,-0.02652128,-0.01907606,0.0004725
 4,0.00575673,-0.00071917,-0.00005112,-0.22684813,-0.12797405,0.0032735
 4,0.00220964,0.00197391,0.00059130,0.00179075,0.00169293,-0.00065483,0
 .24693184,0.00001441,-0.00037712,0.00000387,0.00005630,0.00024925,0.00
 000091,-0.00002244,-0.00034470,0.00000195,0.00141180,-0.00319426,0.000
 03942,0.00142970,0.00069570,-0.00001325,-0.00000690,0.00000191,0.00000
 005,-0.00000106,0.00031569,-0.00000837,0.00008297,0.00011195,-0.000003
 88,-0.00001296,0.00000747,0.00000112,-0.00001362,0.00000769,-0.0000010
 9,0.00003754,-0.00001641,-0.00000024,0.01962717,0.01168809,-0.00034558
 ,-0.00147731,0.00182616,-0.00002038,-0.13354253,-0.14044754,0.00241215
 ,-0.01345698,-0.00967745,-0.00131763,-0.01399417,-0.01000569,0.0018463
 5,0.13986809,0.14915926,0.00000065,-0.00000057,-0.00005774,0.00000233,
 0.00000195,0.00035972,-0.00000568,-0.00000053,-0.00019845,0.00000721,0
 .00001024,0.00093271,0.00000407,0.00000798,0.00068388,0.00000021,0.000
 00008,0.00000038,-0.00000362,-0.00000764,-0.00035153,-0.00000170,-0.00
 000187,-0.00013307,0.00002529,-0.00000980,-0.00000110,-0.00002469,0.00
 000942,-0.00000067,0.00000002,-0.00000007,-0.00000717,-0.00001929,0.00
 000824,-0.00137949,-0.00004154,-0.00002716,-0.00083514,0.00334438,0.00
 236128,-0.04689346,0.02243348,0.01461085,0.00069620,-0.02210161,-0.014
 36702,0.00144337,-0.00361951,-0.00259539,0.04574155\\-0.00000608,-0.00
 001001,0.00001145,0.00000729,0.00000344,-0.00000374,0.00000495,-0.0000
 0514,-0.00000245,-0.00001808,0.00002014,0.00000472,0.00001686,-0.00000
 340,-0.00001029,-0.00000127,0.00000135,-0.00000062,0.00000111,0.000000
 35,-0.00000041,-0.00001442,0.00000986,-0.00000013,0.00000251,-0.000004
 26,-0.00000261,0.00000225,-0.00000417,0.00000249,0.00000504,-0.0000020
 1,-0.00000020,-0.00000050,-0.00002855,0.00000369,0.00000036,0.00001700
 ,-0.00000236,0.00000469,-0.00000511,-0.00000055,-0.00000042,0.00000393
 ,-0.00000234,-0.00000086,0.00000421,0.00000272,-0.00000342,0.00000237,
 0.00000064\\\@


 IT TAKES GREATER CHARACTER TO CARRY OFF GOOD FORTUNE THAN BAD.
                     FRENCH PROVERB.
 Job cpu time:       0 days  0 hours 22 minutes 53.2 seconds.
 File lengths (MBytes):  RWF=    153 Int=      0 D2E=      0 Chk=      6 Scr=      1
 Normal termination of Gaussian 09 at Thu Feb  2 15:31:24 2023.
